V -t * -v 1.0a5 -a 0
A -t * -n 1 -p 0 -o 0x7fffffff -c 30 -a 1
A -t * -h 1 -m 1073741823 -s 0
c -t * -i 31 -n green
c -t * -i 1 -n red
c -t * -i 2 -n blue
c -t * -i 30 -n purple
c -t * -i 3 -n yellow
n -t * -a 8 -s 8 -S UP -v circle -c yellow -i yellow
n -t * -a 4 -s 4 -S UP -v box -c black -i black
n -t * -a 0 -s 0 -S UP -v circle -c black -i black
n -t * -a 9 -s 9 -S UP -v circle -c blue -i blue
n -t * -a 5 -s 5 -S UP -v circle -c red -i red
n -t * -a 1 -s 1 -S UP -v circle -c black -i black
n -t * -a 6 -s 6 -S UP -v circle -c red -i red
n -t * -a 2 -s 2 -S UP -v circle -c black -i black
n -t * -a 7 -s 7 -S UP -v circle -c yellow -i yellow
n -t * -a 3 -s 3 -S UP -v circle -c blue -i blue
l -t * -s 0 -d 1 -S UP -r 10000000 -D 0.01 -c black -o left-down
l -t * -s 0 -d 2 -S UP -r 10000000 -D 0.01 -c black -o right-down
l -t * -s 1 -d 2 -S UP -r 10000000 -D 0.01 -c black -o right
l -t * -s 1 -d 3 -S UP -r 10000000 -D 0.01 -c black -o left-down
l -t * -s 1 -d 4 -S UP -r 10000000 -D 0.01 -c black -o right-down
l -t * -s 2 -d 4 -S UP -r 10000000 -D 0.01 -c black -o left-down
l -t * -s 2 -d 5 -S UP -r 10000000 -D 0.01 -c black -o right-down
l -t * -s 3 -d 4 -S UP -r 10000000 -D 0.01 -c black -o right
l -t * -s 4 -d 5 -S UP -r 10000000 -D 0.01 -c black -o right
l -t * -s 3 -d 6 -S UP -r 10000000 -D 0.01 -c black -o left-down
l -t * -s 3 -d 7 -S UP -r 10000000 -D 0.01 -c black -o right-down
l -t * -s 4 -d 7 -S UP -r 10000000 -D 0.01 -c black -o left-down
l -t * -s 4 -d 8 -S UP -r 10000000 -D 0.01 -c black -o right-down
l -t * -s 5 -d 8 -S UP -r 10000000 -D 0.01 -c black -o left-down
l -t * -s 5 -d 9 -S UP -r 10000000 -D 0.01 -c black -o right-down
l -t * -s 6 -d 7 -S UP -r 10000000 -D 0.01 -c black -o right
l -t * -s 7 -d 8 -S UP -r 10000000 -D 0.01 -c black -o right
l -t * -s 8 -d 9 -S UP -r 10000000 -D 0.01 -c black -o right
n -t 0 -s 0 -S DLABEL -l "source1" -L ""
n -t 0 -s 1 -S DLABEL -l "source2" -L ""
n -t 0 -s 2 -S DLABEL -l "source3" -L ""
n -t 0 -s 4 -S DLABEL -l "RP" -L ""
+ -t 0.5 -s 0 -d 1 -p encap -e 1020 -c 0 -i 1 -a 0 -x {0.2 4.0 -1 ------- null}
- -t 0.5 -s 0 -d 1 -p encap -e 1020 -c 0 -i 1 -a 0 -x {0.2 4.0 -1 ------- null}
h -t 0.5 -s 0 -d 1 -p encap -e 1020 -c 0 -i 1 -a 0 -x {0.2 4.0 -1 ------- null}
+ -t 0.5 -s 0 -d 1 -p encap -e 1020 -c 0 -i 3 -a 0 -x {0.2 4.0 -1 ------- null}
+ -t 0.5 -s 0 -d 1 -p encap -e 1020 -c 0 -i 5 -a 0 -x {0.2 4.0 -1 ------- null}
+ -t 0.5 -s 1 -d 4 -p encap -e 1020 -c 0 -i 7 -a 0 -x {1.2 4.0 -1 ------- null}
- -t 0.5 -s 1 -d 4 -p encap -e 1020 -c 0 -i 7 -a 0 -x {1.2 4.0 -1 ------- null}
h -t 0.5 -s 1 -d 4 -p encap -e 1020 -c 0 -i 7 -a 0 -x {1.2 4.0 -1 ------- null}
+ -t 0.5 -s 1 -d 4 -p encap -e 1020 -c 0 -i 9 -a 0 -x {1.2 4.0 -1 ------- null}
+ -t 0.5 -s 1 -d 4 -p encap -e 1020 -c 0 -i 11 -a 0 -x {1.2 4.0 -1 ------- null}
+ -t 0.5 -s 2 -d 4 -p encap -e 1020 -c 0 -i 13 -a 0 -x {2.2 4.0 -1 ------- null}
- -t 0.5 -s 2 -d 4 -p encap -e 1020 -c 0 -i 13 -a 0 -x {2.2 4.0 -1 ------- null}
h -t 0.5 -s 2 -d 4 -p encap -e 1020 -c 0 -i 13 -a 0 -x {2.2 4.0 -1 ------- null}
+ -t 0.5 -s 2 -d 4 -p encap -e 1020 -c 0 -i 15 -a 0 -x {2.2 4.0 -1 ------- null}
+ -t 0.5 -s 2 -d 4 -p encap -e 1020 -c 0 -i 17 -a 0 -x {2.2 4.0 -1 ------- null}
- -t 0.500816 -s 0 -d 1 -p encap -e 1020 -c 0 -i 3 -a 0 -x {0.2 4.0 -1 ------- null}
h -t 0.500816 -s 0 -d 1 -p encap -e 1020 -c 0 -i 3 -a 0 -x {0.2 4.0 -1 ------- null}
- -t 0.500816 -s 1 -d 4 -p encap -e 1020 -c 0 -i 9 -a 0 -x {1.2 4.0 -1 ------- null}
h -t 0.500816 -s 1 -d 4 -p encap -e 1020 -c 0 -i 9 -a 0 -x {1.2 4.0 -1 ------- null}
- -t 0.500816 -s 2 -d 4 -p encap -e 1020 -c 0 -i 15 -a 0 -x {2.2 4.0 -1 ------- null}
h -t 0.500816 -s 2 -d 4 -p encap -e 1020 -c 0 -i 15 -a 0 -x {2.2 4.0 -1 ------- null}
- -t 0.501632 -s 0 -d 1 -p encap -e 1020 -c 0 -i 5 -a 0 -x {0.2 4.0 -1 ------- null}
h -t 0.501632 -s 0 -d 1 -p encap -e 1020 -c 0 -i 5 -a 0 -x {0.2 4.0 -1 ------- null}
- -t 0.501632 -s 1 -d 4 -p encap -e 1020 -c 0 -i 11 -a 0 -x {1.2 4.0 -1 ------- null}
h -t 0.501632 -s 1 -d 4 -p encap -e 1020 -c 0 -i 11 -a 0 -x {1.2 4.0 -1 ------- null}
- -t 0.501632 -s 2 -d 4 -p encap -e 1020 -c 0 -i 17 -a 0 -x {2.2 4.0 -1 ------- null}
h -t 0.501632 -s 2 -d 4 -p encap -e 1020 -c 0 -i 17 -a 0 -x {2.2 4.0 -1 ------- null}
r -t 0.510816 -s 0 -d 1 -p encap -e 1020 -c 0 -i 1 -a 0 -x {0.2 4.0 -1 ------- null}
+ -t 0.510816 -s 1 -d 4 -p encap -e 1020 -c 0 -i 1 -a 0 -x {0.2 4.0 -1 ------- null}
- -t 0.510816 -s 1 -d 4 -p encap -e 1020 -c 0 -i 1 -a 0 -x {0.2 4.0 -1 ------- null}
h -t 0.510816 -s 1 -d 4 -p encap -e 1020 -c 0 -i 1 -a 0 -x {0.2 4.0 -1 ------- null}
r -t 0.510816 -s 1 -d 4 -p encap -e 1020 -c 0 -i 7 -a 0 -x {1.2 4.0 -1 ------- null}
r -t 0.510816 -s 2 -d 4 -p encap -e 1020 -c 0 -i 13 -a 0 -x {2.2 4.0 -1 ------- null}
r -t 0.511632 -s 0 -d 1 -p encap -e 1020 -c 0 -i 3 -a 0 -x {0.2 4.0 -1 ------- null}
+ -t 0.511632 -s 1 -d 4 -p encap -e 1020 -c 0 -i 3 -a 0 -x {0.2 4.0 -1 ------- null}
r -t 0.511632 -s 1 -d 4 -p encap -e 1020 -c 0 -i 9 -a 0 -x {1.2 4.0 -1 ------- null}
r -t 0.511632 -s 2 -d 4 -p encap -e 1020 -c 0 -i 15 -a 0 -x {2.2 4.0 -1 ------- null}
- -t 0.511632 -s 1 -d 4 -p encap -e 1020 -c 0 -i 3 -a 0 -x {0.2 4.0 -1 ------- null}
h -t 0.511632 -s 1 -d 4 -p encap -e 1020 -c 0 -i 3 -a 0 -x {0.2 4.0 -1 ------- null}
r -t 0.512448 -s 0 -d 1 -p encap -e 1020 -c 0 -i 5 -a 0 -x {0.2 4.0 -1 ------- null}
+ -t 0.512448 -s 1 -d 4 -p encap -e 1020 -c 0 -i 5 -a 0 -x {0.2 4.0 -1 ------- null}
r -t 0.512448 -s 1 -d 4 -p encap -e 1020 -c 0 -i 11 -a 0 -x {1.2 4.0 -1 ------- null}
r -t 0.512448 -s 2 -d 4 -p encap -e 1020 -c 0 -i 17 -a 0 -x {2.2 4.0 -1 ------- null}
- -t 0.512448 -s 1 -d 4 -p encap -e 1020 -c 0 -i 5 -a 0 -x {0.2 4.0 -1 ------- null}
h -t 0.512448 -s 1 -d 4 -p encap -e 1020 -c 0 -i 5 -a 0 -x {0.2 4.0 -1 ------- null}
r -t 0.521632 -s 1 -d 4 -p encap -e 1020 -c 0 -i 1 -a 0 -x {0.2 4.0 -1 ------- null}
r -t 0.522448 -s 1 -d 4 -p encap -e 1020 -c 0 -i 3 -a 0 -x {0.2 4.0 -1 ------- null}
r -t 0.523264 -s 1 -d 4 -p encap -e 1020 -c 0 -i 5 -a 0 -x {0.2 4.0 -1 ------- null}
+ -t 0.553571428571429 -s 0 -d 1 -p encap -e 1020 -c 0 -i 19 -a 0 -x {0.2 4.0 -1 ------- null}
- -t 0.553571428571429 -s 0 -d 1 -p encap -e 1020 -c 0 -i 19 -a 0 -x {0.2 4.0 -1 ------- null}
h -t 0.553571428571429 -s 0 -d 1 -p encap -e 1020 -c 0 -i 19 -a 0 -x {0.2 4.0 -1 ------- null}
+ -t 0.553571428571429 -s 0 -d 1 -p encap -e 1020 -c 0 -i 21 -a 0 -x {0.2 4.0 -1 ------- null}
+ -t 0.553571428571429 -s 0 -d 1 -p encap -e 1020 -c 0 -i 23 -a 0 -x {0.2 4.0 -1 ------- null}
+ -t 0.553571428571429 -s 1 -d 4 -p encap -e 1020 -c 0 -i 25 -a 0 -x {1.2 4.0 -1 ------- null}
- -t 0.553571428571429 -s 1 -d 4 -p encap -e 1020 -c 0 -i 25 -a 0 -x {1.2 4.0 -1 ------- null}
h -t 0.553571428571429 -s 1 -d 4 -p encap -e 1020 -c 0 -i 25 -a 0 -x {1.2 4.0 -1 ------- null}
+ -t 0.553571428571429 -s 1 -d 4 -p encap -e 1020 -c 0 -i 27 -a 0 -x {1.2 4.0 -1 ------- null}
+ -t 0.553571428571429 -s 1 -d 4 -p encap -e 1020 -c 0 -i 29 -a 0 -x {1.2 4.0 -1 ------- null}
+ -t 0.553571428571429 -s 2 -d 4 -p encap -e 1020 -c 0 -i 31 -a 0 -x {2.2 4.0 -1 ------- null}
- -t 0.553571428571429 -s 2 -d 4 -p encap -e 1020 -c 0 -i 31 -a 0 -x {2.2 4.0 -1 ------- null}
h -t 0.553571428571429 -s 2 -d 4 -p encap -e 1020 -c 0 -i 31 -a 0 -x {2.2 4.0 -1 ------- null}
+ -t 0.553571428571429 -s 2 -d 4 -p encap -e 1020 -c 0 -i 33 -a 0 -x {2.2 4.0 -1 ------- null}
+ -t 0.553571428571429 -s 2 -d 4 -p encap -e 1020 -c 0 -i 35 -a 0 -x {2.2 4.0 -1 ------- null}
- -t 0.554387428571429 -s 0 -d 1 -p encap -e 1020 -c 0 -i 21 -a 0 -x {0.2 4.0 -1 ------- null}
h -t 0.554387428571429 -s 0 -d 1 -p encap -e 1020 -c 0 -i 21 -a 0 -x {0.2 4.0 -1 ------- null}
- -t 0.554387428571429 -s 1 -d 4 -p encap -e 1020 -c 0 -i 27 -a 0 -x {1.2 4.0 -1 ------- null}
h -t 0.554387428571429 -s 1 -d 4 -p encap -e 1020 -c 0 -i 27 -a 0 -x {1.2 4.0 -1 ------- null}
- -t 0.554387428571429 -s 2 -d 4 -p encap -e 1020 -c 0 -i 33 -a 0 -x {2.2 4.0 -1 ------- null}
h -t 0.554387428571429 -s 2 -d 4 -p encap -e 1020 -c 0 -i 33 -a 0 -x {2.2 4.0 -1 ------- null}
- -t 0.555203428571429 -s 0 -d 1 -p encap -e 1020 -c 0 -i 23 -a 0 -x {0.2 4.0 -1 ------- null}
h -t 0.555203428571429 -s 0 -d 1 -p encap -e 1020 -c 0 -i 23 -a 0 -x {0.2 4.0 -1 ------- null}
- -t 0.555203428571429 -s 1 -d 4 -p encap -e 1020 -c 0 -i 29 -a 0 -x {1.2 4.0 -1 ------- null}
h -t 0.555203428571429 -s 1 -d 4 -p encap -e 1020 -c 0 -i 29 -a 0 -x {1.2 4.0 -1 ------- null}
- -t 0.555203428571429 -s 2 -d 4 -p encap -e 1020 -c 0 -i 35 -a 0 -x {2.2 4.0 -1 ------- null}
h -t 0.555203428571429 -s 2 -d 4 -p encap -e 1020 -c 0 -i 35 -a 0 -x {2.2 4.0 -1 ------- null}
r -t 0.564387428571429 -s 0 -d 1 -p encap -e 1020 -c 0 -i 19 -a 0 -x {0.2 4.0 -1 ------- null}
+ -t 0.564387428571429 -s 1 -d 4 -p encap -e 1020 -c 0 -i 19 -a 0 -x {0.2 4.0 -1 ------- null}
- -t 0.564387428571429 -s 1 -d 4 -p encap -e 1020 -c 0 -i 19 -a 0 -x {0.2 4.0 -1 ------- null}
h -t 0.564387428571429 -s 1 -d 4 -p encap -e 1020 -c 0 -i 19 -a 0 -x {0.2 4.0 -1 ------- null}
r -t 0.564387428571429 -s 1 -d 4 -p encap -e 1020 -c 0 -i 25 -a 0 -x {1.2 4.0 -1 ------- null}
r -t 0.564387428571429 -s 2 -d 4 -p encap -e 1020 -c 0 -i 31 -a 0 -x {2.2 4.0 -1 ------- null}
r -t 0.565203428571429 -s 0 -d 1 -p encap -e 1020 -c 0 -i 21 -a 0 -x {0.2 4.0 -1 ------- null}
+ -t 0.565203428571429 -s 1 -d 4 -p encap -e 1020 -c 0 -i 21 -a 0 -x {0.2 4.0 -1 ------- null}
r -t 0.565203428571429 -s 1 -d 4 -p encap -e 1020 -c 0 -i 27 -a 0 -x {1.2 4.0 -1 ------- null}
r -t 0.565203428571429 -s 2 -d 4 -p encap -e 1020 -c 0 -i 33 -a 0 -x {2.2 4.0 -1 ------- null}
- -t 0.565203428571429 -s 1 -d 4 -p encap -e 1020 -c 0 -i 21 -a 0 -x {0.2 4.0 -1 ------- null}
h -t 0.565203428571429 -s 1 -d 4 -p encap -e 1020 -c 0 -i 21 -a 0 -x {0.2 4.0 -1 ------- null}
r -t 0.566019428571429 -s 0 -d 1 -p encap -e 1020 -c 0 -i 23 -a 0 -x {0.2 4.0 -1 ------- null}
+ -t 0.566019428571429 -s 1 -d 4 -p encap -e 1020 -c 0 -i 23 -a 0 -x {0.2 4.0 -1 ------- null}
r -t 0.566019428571429 -s 1 -d 4 -p encap -e 1020 -c 0 -i 29 -a 0 -x {1.2 4.0 -1 ------- null}
r -t 0.566019428571429 -s 2 -d 4 -p encap -e 1020 -c 0 -i 35 -a 0 -x {2.2 4.0 -1 ------- null}
- -t 0.566019428571429 -s 1 -d 4 -p encap -e 1020 -c 0 -i 23 -a 0 -x {0.2 4.0 -1 ------- null}
h -t 0.566019428571429 -s 1 -d 4 -p encap -e 1020 -c 0 -i 23 -a 0 -x {0.2 4.0 -1 ------- null}
r -t 0.575203428571429 -s 1 -d 4 -p encap -e 1020 -c 0 -i 19 -a 0 -x {0.2 4.0 -1 ------- null}
r -t 0.576019428571429 -s 1 -d 4 -p encap -e 1020 -c 0 -i 21 -a 0 -x {0.2 4.0 -1 ------- null}
r -t 0.576835428571429 -s 1 -d 4 -p encap -e 1020 -c 0 -i 23 -a 0 -x {0.2 4.0 -1 ------- null}
+ -t 0.607142857142857 -s 0 -d 1 -p encap -e 1020 -c 0 -i 37 -a 0 -x {0.2 4.0 -1 ------- null}
- -t 0.607142857142857 -s 0 -d 1 -p encap -e 1020 -c 0 -i 37 -a 0 -x {0.2 4.0 -1 ------- null}
h -t 0.607142857142857 -s 0 -d 1 -p encap -e 1020 -c 0 -i 37 -a 0 -x {0.2 4.0 -1 ------- null}
+ -t 0.607142857142857 -s 0 -d 1 -p encap -e 1020 -c 0 -i 39 -a 0 -x {0.2 4.0 -1 ------- null}
+ -t 0.607142857142857 -s 0 -d 1 -p encap -e 1020 -c 0 -i 41 -a 0 -x {0.2 4.0 -1 ------- null}
+ -t 0.607142857142857 -s 1 -d 4 -p encap -e 1020 -c 0 -i 43 -a 0 -x {1.2 4.0 -1 ------- null}
- -t 0.607142857142857 -s 1 -d 4 -p encap -e 1020 -c 0 -i 43 -a 0 -x {1.2 4.0 -1 ------- null}
h -t 0.607142857142857 -s 1 -d 4 -p encap -e 1020 -c 0 -i 43 -a 0 -x {1.2 4.0 -1 ------- null}
+ -t 0.607142857142857 -s 1 -d 4 -p encap -e 1020 -c 0 -i 45 -a 0 -x {1.2 4.0 -1 ------- null}
+ -t 0.607142857142857 -s 1 -d 4 -p encap -e 1020 -c 0 -i 47 -a 0 -x {1.2 4.0 -1 ------- null}
+ -t 0.607142857142857 -s 2 -d 4 -p encap -e 1020 -c 0 -i 49 -a 0 -x {2.2 4.0 -1 ------- null}
- -t 0.607142857142857 -s 2 -d 4 -p encap -e 1020 -c 0 -i 49 -a 0 -x {2.2 4.0 -1 ------- null}
h -t 0.607142857142857 -s 2 -d 4 -p encap -e 1020 -c 0 -i 49 -a 0 -x {2.2 4.0 -1 ------- null}
+ -t 0.607142857142857 -s 2 -d 4 -p encap -e 1020 -c 0 -i 51 -a 0 -x {2.2 4.0 -1 ------- null}
+ -t 0.607142857142857 -s 2 -d 4 -p encap -e 1020 -c 0 -i 53 -a 0 -x {2.2 4.0 -1 ------- null}
- -t 0.607958857142857 -s 0 -d 1 -p encap -e 1020 -c 0 -i 39 -a 0 -x {0.2 4.0 -1 ------- null}
h -t 0.607958857142857 -s 0 -d 1 -p encap -e 1020 -c 0 -i 39 -a 0 -x {0.2 4.0 -1 ------- null}
- -t 0.607958857142857 -s 1 -d 4 -p encap -e 1020 -c 0 -i 45 -a 0 -x {1.2 4.0 -1 ------- null}
h -t 0.607958857142857 -s 1 -d 4 -p encap -e 1020 -c 0 -i 45 -a 0 -x {1.2 4.0 -1 ------- null}
- -t 0.607958857142857 -s 2 -d 4 -p encap -e 1020 -c 0 -i 51 -a 0 -x {2.2 4.0 -1 ------- null}
h -t 0.607958857142857 -s 2 -d 4 -p encap -e 1020 -c 0 -i 51 -a 0 -x {2.2 4.0 -1 ------- null}
- -t 0.608774857142857 -s 0 -d 1 -p encap -e 1020 -c 0 -i 41 -a 0 -x {0.2 4.0 -1 ------- null}
h -t 0.608774857142857 -s 0 -d 1 -p encap -e 1020 -c 0 -i 41 -a 0 -x {0.2 4.0 -1 ------- null}
- -t 0.608774857142857 -s 1 -d 4 -p encap -e 1020 -c 0 -i 47 -a 0 -x {1.2 4.0 -1 ------- null}
h -t 0.608774857142857 -s 1 -d 4 -p encap -e 1020 -c 0 -i 47 -a 0 -x {1.2 4.0 -1 ------- null}
- -t 0.608774857142857 -s 2 -d 4 -p encap -e 1020 -c 0 -i 53 -a 0 -x {2.2 4.0 -1 ------- null}
h -t 0.608774857142857 -s 2 -d 4 -p encap -e 1020 -c 0 -i 53 -a 0 -x {2.2 4.0 -1 ------- null}
r -t 0.617958857142857 -s 0 -d 1 -p encap -e 1020 -c 0 -i 37 -a 0 -x {0.2 4.0 -1 ------- null}
+ -t 0.617958857142857 -s 1 -d 4 -p encap -e 1020 -c 0 -i 37 -a 0 -x {0.2 4.0 -1 ------- null}
- -t 0.617958857142857 -s 1 -d 4 -p encap -e 1020 -c 0 -i 37 -a 0 -x {0.2 4.0 -1 ------- null}
h -t 0.617958857142857 -s 1 -d 4 -p encap -e 1020 -c 0 -i 37 -a 0 -x {0.2 4.0 -1 ------- null}
r -t 0.617958857142857 -s 1 -d 4 -p encap -e 1020 -c 0 -i 43 -a 0 -x {1.2 4.0 -1 ------- null}
r -t 0.617958857142857 -s 2 -d 4 -p encap -e 1020 -c 0 -i 49 -a 0 -x {2.2 4.0 -1 ------- null}
r -t 0.618774857142857 -s 0 -d 1 -p encap -e 1020 -c 0 -i 39 -a 0 -x {0.2 4.0 -1 ------- null}
+ -t 0.618774857142857 -s 1 -d 4 -p encap -e 1020 -c 0 -i 39 -a 0 -x {0.2 4.0 -1 ------- null}
r -t 0.618774857142857 -s 1 -d 4 -p encap -e 1020 -c 0 -i 45 -a 0 -x {1.2 4.0 -1 ------- null}
r -t 0.618774857142857 -s 2 -d 4 -p encap -e 1020 -c 0 -i 51 -a 0 -x {2.2 4.0 -1 ------- null}
- -t 0.618774857142857 -s 1 -d 4 -p encap -e 1020 -c 0 -i 39 -a 0 -x {0.2 4.0 -1 ------- null}
h -t 0.618774857142857 -s 1 -d 4 -p encap -e 1020 -c 0 -i 39 -a 0 -x {0.2 4.0 -1 ------- null}
r -t 0.619590857142857 -s 0 -d 1 -p encap -e 1020 -c 0 -i 41 -a 0 -x {0.2 4.0 -1 ------- null}
+ -t 0.619590857142857 -s 1 -d 4 -p encap -e 1020 -c 0 -i 41 -a 0 -x {0.2 4.0 -1 ------- null}
r -t 0.619590857142857 -s 1 -d 4 -p encap -e 1020 -c 0 -i 47 -a 0 -x {1.2 4.0 -1 ------- null}
r -t 0.619590857142857 -s 2 -d 4 -p encap -e 1020 -c 0 -i 53 -a 0 -x {2.2 4.0 -1 ------- null}
- -t 0.619590857142857 -s 1 -d 4 -p encap -e 1020 -c 0 -i 41 -a 0 -x {0.2 4.0 -1 ------- null}
h -t 0.619590857142857 -s 1 -d 4 -p encap -e 1020 -c 0 -i 41 -a 0 -x {0.2 4.0 -1 ------- null}
r -t 0.628774857142857 -s 1 -d 4 -p encap -e 1020 -c 0 -i 37 -a 0 -x {0.2 4.0 -1 ------- null}
r -t 0.629590857142857 -s 1 -d 4 -p encap -e 1020 -c 0 -i 39 -a 0 -x {0.2 4.0 -1 ------- null}
r -t 0.630406857142857 -s 1 -d 4 -p encap -e 1020 -c 0 -i 41 -a 0 -x {0.2 4.0 -1 ------- null}
+ -t 0.660714285714286 -s 0 -d 1 -p encap -e 1020 -c 0 -i 55 -a 0 -x {0.2 4.0 -1 ------- null}
- -t 0.660714285714286 -s 0 -d 1 -p encap -e 1020 -c 0 -i 55 -a 0 -x {0.2 4.0 -1 ------- null}
h -t 0.660714285714286 -s 0 -d 1 -p encap -e 1020 -c 0 -i 55 -a 0 -x {0.2 4.0 -1 ------- null}
+ -t 0.660714285714286 -s 0 -d 1 -p encap -e 1020 -c 0 -i 57 -a 0 -x {0.2 4.0 -1 ------- null}
+ -t 0.660714285714286 -s 0 -d 1 -p encap -e 1020 -c 0 -i 59 -a 0 -x {0.2 4.0 -1 ------- null}
+ -t 0.660714285714286 -s 1 -d 4 -p encap -e 1020 -c 0 -i 61 -a 0 -x {1.2 4.0 -1 ------- null}
- -t 0.660714285714286 -s 1 -d 4 -p encap -e 1020 -c 0 -i 61 -a 0 -x {1.2 4.0 -1 ------- null}
h -t 0.660714285714286 -s 1 -d 4 -p encap -e 1020 -c 0 -i 61 -a 0 -x {1.2 4.0 -1 ------- null}
+ -t 0.660714285714286 -s 1 -d 4 -p encap -e 1020 -c 0 -i 63 -a 0 -x {1.2 4.0 -1 ------- null}
+ -t 0.660714285714286 -s 1 -d 4 -p encap -e 1020 -c 0 -i 65 -a 0 -x {1.2 4.0 -1 ------- null}
+ -t 0.660714285714286 -s 2 -d 4 -p encap -e 1020 -c 0 -i 67 -a 0 -x {2.2 4.0 -1 ------- null}
- -t 0.660714285714286 -s 2 -d 4 -p encap -e 1020 -c 0 -i 67 -a 0 -x {2.2 4.0 -1 ------- null}
h -t 0.660714285714286 -s 2 -d 4 -p encap -e 1020 -c 0 -i 67 -a 0 -x {2.2 4.0 -1 ------- null}
+ -t 0.660714285714286 -s 2 -d 4 -p encap -e 1020 -c 0 -i 69 -a 0 -x {2.2 4.0 -1 ------- null}
+ -t 0.660714285714286 -s 2 -d 4 -p encap -e 1020 -c 0 -i 71 -a 0 -x {2.2 4.0 -1 ------- null}
- -t 0.661530285714286 -s 0 -d 1 -p encap -e 1020 -c 0 -i 57 -a 0 -x {0.2 4.0 -1 ------- null}
h -t 0.661530285714286 -s 0 -d 1 -p encap -e 1020 -c 0 -i 57 -a 0 -x {0.2 4.0 -1 ------- null}
- -t 0.661530285714286 -s 1 -d 4 -p encap -e 1020 -c 0 -i 63 -a 0 -x {1.2 4.0 -1 ------- null}
h -t 0.661530285714286 -s 1 -d 4 -p encap -e 1020 -c 0 -i 63 -a 0 -x {1.2 4.0 -1 ------- null}
- -t 0.661530285714286 -s 2 -d 4 -p encap -e 1020 -c 0 -i 69 -a 0 -x {2.2 4.0 -1 ------- null}
h -t 0.661530285714286 -s 2 -d 4 -p encap -e 1020 -c 0 -i 69 -a 0 -x {2.2 4.0 -1 ------- null}
- -t 0.662346285714286 -s 0 -d 1 -p encap -e 1020 -c 0 -i 59 -a 0 -x {0.2 4.0 -1 ------- null}
h -t 0.662346285714286 -s 0 -d 1 -p encap -e 1020 -c 0 -i 59 -a 0 -x {0.2 4.0 -1 ------- null}
- -t 0.662346285714286 -s 1 -d 4 -p encap -e 1020 -c 0 -i 65 -a 0 -x {1.2 4.0 -1 ------- null}
h -t 0.662346285714286 -s 1 -d 4 -p encap -e 1020 -c 0 -i 65 -a 0 -x {1.2 4.0 -1 ------- null}
- -t 0.662346285714286 -s 2 -d 4 -p encap -e 1020 -c 0 -i 71 -a 0 -x {2.2 4.0 -1 ------- null}
h -t 0.662346285714286 -s 2 -d 4 -p encap -e 1020 -c 0 -i 71 -a 0 -x {2.2 4.0 -1 ------- null}
r -t 0.671530285714286 -s 0 -d 1 -p encap -e 1020 -c 0 -i 55 -a 0 -x {0.2 4.0 -1 ------- null}
+ -t 0.671530285714286 -s 1 -d 4 -p encap -e 1020 -c 0 -i 55 -a 0 -x {0.2 4.0 -1 ------- null}
- -t 0.671530285714286 -s 1 -d 4 -p encap -e 1020 -c 0 -i 55 -a 0 -x {0.2 4.0 -1 ------- null}
h -t 0.671530285714286 -s 1 -d 4 -p encap -e 1020 -c 0 -i 55 -a 0 -x {0.2 4.0 -1 ------- null}
r -t 0.671530285714286 -s 1 -d 4 -p encap -e 1020 -c 0 -i 61 -a 0 -x {1.2 4.0 -1 ------- null}
r -t 0.671530285714286 -s 2 -d 4 -p encap -e 1020 -c 0 -i 67 -a 0 -x {2.2 4.0 -1 ------- null}
r -t 0.672346285714286 -s 0 -d 1 -p encap -e 1020 -c 0 -i 57 -a 0 -x {0.2 4.0 -1 ------- null}
+ -t 0.672346285714286 -s 1 -d 4 -p encap -e 1020 -c 0 -i 57 -a 0 -x {0.2 4.0 -1 ------- null}
r -t 0.672346285714286 -s 1 -d 4 -p encap -e 1020 -c 0 -i 63 -a 0 -x {1.2 4.0 -1 ------- null}
r -t 0.672346285714286 -s 2 -d 4 -p encap -e 1020 -c 0 -i 69 -a 0 -x {2.2 4.0 -1 ------- null}
- -t 0.672346285714286 -s 1 -d 4 -p encap -e 1020 -c 0 -i 57 -a 0 -x {0.2 4.0 -1 ------- null}
h -t 0.672346285714286 -s 1 -d 4 -p encap -e 1020 -c 0 -i 57 -a 0 -x {0.2 4.0 -1 ------- null}
r -t 0.673162285714286 -s 0 -d 1 -p encap -e 1020 -c 0 -i 59 -a 0 -x {0.2 4.0 -1 ------- null}
+ -t 0.673162285714286 -s 1 -d 4 -p encap -e 1020 -c 0 -i 59 -a 0 -x {0.2 4.0 -1 ------- null}
r -t 0.673162285714286 -s 1 -d 4 -p encap -e 1020 -c 0 -i 65 -a 0 -x {1.2 4.0 -1 ------- null}
r -t 0.673162285714286 -s 2 -d 4 -p encap -e 1020 -c 0 -i 71 -a 0 -x {2.2 4.0 -1 ------- null}
- -t 0.673162285714286 -s 1 -d 4 -p encap -e 1020 -c 0 -i 59 -a 0 -x {0.2 4.0 -1 ------- null}
h -t 0.673162285714286 -s 1 -d 4 -p encap -e 1020 -c 0 -i 59 -a 0 -x {0.2 4.0 -1 ------- null}
r -t 0.682346285714286 -s 1 -d 4 -p encap -e 1020 -c 0 -i 55 -a 0 -x {0.2 4.0 -1 ------- null}
r -t 0.683162285714286 -s 1 -d 4 -p encap -e 1020 -c 0 -i 57 -a 0 -x {0.2 4.0 -1 ------- null}
r -t 0.683978285714286 -s 1 -d 4 -p encap -e 1020 -c 0 -i 59 -a 0 -x {0.2 4.0 -1 ------- null}
+ -t 0.714285714285714 -s 0 -d 1 -p encap -e 1020 -c 0 -i 73 -a 0 -x {0.2 4.0 -1 ------- null}
- -t 0.714285714285714 -s 0 -d 1 -p encap -e 1020 -c 0 -i 73 -a 0 -x {0.2 4.0 -1 ------- null}
h -t 0.714285714285714 -s 0 -d 1 -p encap -e 1020 -c 0 -i 73 -a 0 -x {0.2 4.0 -1 ------- null}
+ -t 0.714285714285714 -s 0 -d 1 -p encap -e 1020 -c 0 -i 75 -a 0 -x {0.2 4.0 -1 ------- null}
+ -t 0.714285714285714 -s 0 -d 1 -p encap -e 1020 -c 0 -i 77 -a 0 -x {0.2 4.0 -1 ------- null}
+ -t 0.714285714285714 -s 1 -d 4 -p encap -e 1020 -c 0 -i 79 -a 0 -x {1.2 4.0 -1 ------- null}
- -t 0.714285714285714 -s 1 -d 4 -p encap -e 1020 -c 0 -i 79 -a 0 -x {1.2 4.0 -1 ------- null}
h -t 0.714285714285714 -s 1 -d 4 -p encap -e 1020 -c 0 -i 79 -a 0 -x {1.2 4.0 -1 ------- null}
+ -t 0.714285714285714 -s 1 -d 4 -p encap -e 1020 -c 0 -i 81 -a 0 -x {1.2 4.0 -1 ------- null}
+ -t 0.714285714285714 -s 1 -d 4 -p encap -e 1020 -c 0 -i 83 -a 0 -x {1.2 4.0 -1 ------- null}
+ -t 0.714285714285714 -s 2 -d 4 -p encap -e 1020 -c 0 -i 85 -a 0 -x {2.2 4.0 -1 ------- null}
- -t 0.714285714285714 -s 2 -d 4 -p encap -e 1020 -c 0 -i 85 -a 0 -x {2.2 4.0 -1 ------- null}
h -t 0.714285714285714 -s 2 -d 4 -p encap -e 1020 -c 0 -i 85 -a 0 -x {2.2 4.0 -1 ------- null}
+ -t 0.714285714285714 -s 2 -d 4 -p encap -e 1020 -c 0 -i 87 -a 0 -x {2.2 4.0 -1 ------- null}
+ -t 0.714285714285714 -s 2 -d 4 -p encap -e 1020 -c 0 -i 89 -a 0 -x {2.2 4.0 -1 ------- null}
- -t 0.715101714285714 -s 0 -d 1 -p encap -e 1020 -c 0 -i 75 -a 0 -x {0.2 4.0 -1 ------- null}
h -t 0.715101714285714 -s 0 -d 1 -p encap -e 1020 -c 0 -i 75 -a 0 -x {0.2 4.0 -1 ------- null}
- -t 0.715101714285714 -s 1 -d 4 -p encap -e 1020 -c 0 -i 81 -a 0 -x {1.2 4.0 -1 ------- null}
h -t 0.715101714285714 -s 1 -d 4 -p encap -e 1020 -c 0 -i 81 -a 0 -x {1.2 4.0 -1 ------- null}
- -t 0.715101714285714 -s 2 -d 4 -p encap -e 1020 -c 0 -i 87 -a 0 -x {2.2 4.0 -1 ------- null}
h -t 0.715101714285714 -s 2 -d 4 -p encap -e 1020 -c 0 -i 87 -a 0 -x {2.2 4.0 -1 ------- null}
- -t 0.715917714285714 -s 0 -d 1 -p encap -e 1020 -c 0 -i 77 -a 0 -x {0.2 4.0 -1 ------- null}
h -t 0.715917714285714 -s 0 -d 1 -p encap -e 1020 -c 0 -i 77 -a 0 -x {0.2 4.0 -1 ------- null}
- -t 0.715917714285714 -s 1 -d 4 -p encap -e 1020 -c 0 -i 83 -a 0 -x {1.2 4.0 -1 ------- null}
h -t 0.715917714285714 -s 1 -d 4 -p encap -e 1020 -c 0 -i 83 -a 0 -x {1.2 4.0 -1 ------- null}
- -t 0.715917714285714 -s 2 -d 4 -p encap -e 1020 -c 0 -i 89 -a 0 -x {2.2 4.0 -1 ------- null}
h -t 0.715917714285714 -s 2 -d 4 -p encap -e 1020 -c 0 -i 89 -a 0 -x {2.2 4.0 -1 ------- null}
r -t 0.725101714285714 -s 0 -d 1 -p encap -e 1020 -c 0 -i 73 -a 0 -x {0.2 4.0 -1 ------- null}
+ -t 0.725101714285714 -s 1 -d 4 -p encap -e 1020 -c 0 -i 73 -a 0 -x {0.2 4.0 -1 ------- null}
- -t 0.725101714285714 -s 1 -d 4 -p encap -e 1020 -c 0 -i 73 -a 0 -x {0.2 4.0 -1 ------- null}
h -t 0.725101714285714 -s 1 -d 4 -p encap -e 1020 -c 0 -i 73 -a 0 -x {0.2 4.0 -1 ------- null}
r -t 0.725101714285714 -s 1 -d 4 -p encap -e 1020 -c 0 -i 79 -a 0 -x {1.2 4.0 -1 ------- null}
r -t 0.725101714285714 -s 2 -d 4 -p encap -e 1020 -c 0 -i 85 -a 0 -x {2.2 4.0 -1 ------- null}
r -t 0.725917714285714 -s 0 -d 1 -p encap -e 1020 -c 0 -i 75 -a 0 -x {0.2 4.0 -1 ------- null}
+ -t 0.725917714285714 -s 1 -d 4 -p encap -e 1020 -c 0 -i 75 -a 0 -x {0.2 4.0 -1 ------- null}
r -t 0.725917714285714 -s 1 -d 4 -p encap -e 1020 -c 0 -i 81 -a 0 -x {1.2 4.0 -1 ------- null}
r -t 0.725917714285714 -s 2 -d 4 -p encap -e 1020 -c 0 -i 87 -a 0 -x {2.2 4.0 -1 ------- null}
- -t 0.725917714285714 -s 1 -d 4 -p encap -e 1020 -c 0 -i 75 -a 0 -x {0.2 4.0 -1 ------- null}
h -t 0.725917714285714 -s 1 -d 4 -p encap -e 1020 -c 0 -i 75 -a 0 -x {0.2 4.0 -1 ------- null}
r -t 0.726733714285715 -s 0 -d 1 -p encap -e 1020 -c 0 -i 77 -a 0 -x {0.2 4.0 -1 ------- null}
+ -t 0.726733714285715 -s 1 -d 4 -p encap -e 1020 -c 0 -i 77 -a 0 -x {0.2 4.0 -1 ------- null}
r -t 0.726733714285715 -s 1 -d 4 -p encap -e 1020 -c 0 -i 83 -a 0 -x {1.2 4.0 -1 ------- null}
r -t 0.726733714285715 -s 2 -d 4 -p encap -e 1020 -c 0 -i 89 -a 0 -x {2.2 4.0 -1 ------- null}
- -t 0.726733714285715 -s 1 -d 4 -p encap -e 1020 -c 0 -i 77 -a 0 -x {0.2 4.0 -1 ------- null}
h -t 0.726733714285715 -s 1 -d 4 -p encap -e 1020 -c 0 -i 77 -a 0 -x {0.2 4.0 -1 ------- null}
r -t 0.735917714285715 -s 1 -d 4 -p encap -e 1020 -c 0 -i 73 -a 0 -x {0.2 4.0 -1 ------- null}
r -t 0.736733714285715 -s 1 -d 4 -p encap -e 1020 -c 0 -i 75 -a 0 -x {0.2 4.0 -1 ------- null}
r -t 0.737549714285715 -s 1 -d 4 -p encap -e 1020 -c 0 -i 77 -a 0 -x {0.2 4.0 -1 ------- null}
+ -t 0.767857142857143 -s 0 -d 1 -p encap -e 1020 -c 0 -i 91 -a 0 -x {0.2 4.0 -1 ------- null}
- -t 0.767857142857143 -s 0 -d 1 -p encap -e 1020 -c 0 -i 91 -a 0 -x {0.2 4.0 -1 ------- null}
h -t 0.767857142857143 -s 0 -d 1 -p encap -e 1020 -c 0 -i 91 -a 0 -x {0.2 4.0 -1 ------- null}
+ -t 0.767857142857143 -s 0 -d 1 -p encap -e 1020 -c 0 -i 93 -a 0 -x {0.2 4.0 -1 ------- null}
+ -t 0.767857142857143 -s 0 -d 1 -p encap -e 1020 -c 0 -i 95 -a 0 -x {0.2 4.0 -1 ------- null}
+ -t 0.767857142857143 -s 1 -d 4 -p encap -e 1020 -c 0 -i 97 -a 0 -x {1.2 4.0 -1 ------- null}
- -t 0.767857142857143 -s 1 -d 4 -p encap -e 1020 -c 0 -i 97 -a 0 -x {1.2 4.0 -1 ------- null}
h -t 0.767857142857143 -s 1 -d 4 -p encap -e 1020 -c 0 -i 97 -a 0 -x {1.2 4.0 -1 ------- null}
+ -t 0.767857142857143 -s 1 -d 4 -p encap -e 1020 -c 0 -i 99 -a 0 -x {1.2 4.0 -1 ------- null}
+ -t 0.767857142857143 -s 1 -d 4 -p encap -e 1020 -c 0 -i 101 -a 0 -x {1.2 4.0 -1 ------- null}
+ -t 0.767857142857143 -s 2 -d 4 -p encap -e 1020 -c 0 -i 103 -a 0 -x {2.2 4.0 -1 ------- null}
- -t 0.767857142857143 -s 2 -d 4 -p encap -e 1020 -c 0 -i 103 -a 0 -x {2.2 4.0 -1 ------- null}
h -t 0.767857142857143 -s 2 -d 4 -p encap -e 1020 -c 0 -i 103 -a 0 -x {2.2 4.0 -1 ------- null}
+ -t 0.767857142857143 -s 2 -d 4 -p encap -e 1020 -c 0 -i 105 -a 0 -x {2.2 4.0 -1 ------- null}
+ -t 0.767857142857143 -s 2 -d 4 -p encap -e 1020 -c 0 -i 107 -a 0 -x {2.2 4.0 -1 ------- null}
- -t 0.768673142857143 -s 0 -d 1 -p encap -e 1020 -c 0 -i 93 -a 0 -x {0.2 4.0 -1 ------- null}
h -t 0.768673142857143 -s 0 -d 1 -p encap -e 1020 -c 0 -i 93 -a 0 -x {0.2 4.0 -1 ------- null}
- -t 0.768673142857143 -s 1 -d 4 -p encap -e 1020 -c 0 -i 99 -a 0 -x {1.2 4.0 -1 ------- null}
h -t 0.768673142857143 -s 1 -d 4 -p encap -e 1020 -c 0 -i 99 -a 0 -x {1.2 4.0 -1 ------- null}
- -t 0.768673142857143 -s 2 -d 4 -p encap -e 1020 -c 0 -i 105 -a 0 -x {2.2 4.0 -1 ------- null}
h -t 0.768673142857143 -s 2 -d 4 -p encap -e 1020 -c 0 -i 105 -a 0 -x {2.2 4.0 -1 ------- null}
- -t 0.769489142857143 -s 0 -d 1 -p encap -e 1020 -c 0 -i 95 -a 0 -x {0.2 4.0 -1 ------- null}
h -t 0.769489142857143 -s 0 -d 1 -p encap -e 1020 -c 0 -i 95 -a 0 -x {0.2 4.0 -1 ------- null}
- -t 0.769489142857143 -s 1 -d 4 -p encap -e 1020 -c 0 -i 101 -a 0 -x {1.2 4.0 -1 ------- null}
h -t 0.769489142857143 -s 1 -d 4 -p encap -e 1020 -c 0 -i 101 -a 0 -x {1.2 4.0 -1 ------- null}
- -t 0.769489142857143 -s 2 -d 4 -p encap -e 1020 -c 0 -i 107 -a 0 -x {2.2 4.0 -1 ------- null}
h -t 0.769489142857143 -s 2 -d 4 -p encap -e 1020 -c 0 -i 107 -a 0 -x {2.2 4.0 -1 ------- null}
r -t 0.778673142857143 -s 0 -d 1 -p encap -e 1020 -c 0 -i 91 -a 0 -x {0.2 4.0 -1 ------- null}
+ -t 0.778673142857143 -s 1 -d 4 -p encap -e 1020 -c 0 -i 91 -a 0 -x {0.2 4.0 -1 ------- null}
- -t 0.778673142857143 -s 1 -d 4 -p encap -e 1020 -c 0 -i 91 -a 0 -x {0.2 4.0 -1 ------- null}
h -t 0.778673142857143 -s 1 -d 4 -p encap -e 1020 -c 0 -i 91 -a 0 -x {0.2 4.0 -1 ------- null}
r -t 0.778673142857143 -s 1 -d 4 -p encap -e 1020 -c 0 -i 97 -a 0 -x {1.2 4.0 -1 ------- null}
r -t 0.778673142857143 -s 2 -d 4 -p encap -e 1020 -c 0 -i 103 -a 0 -x {2.2 4.0 -1 ------- null}
r -t 0.779489142857143 -s 0 -d 1 -p encap -e 1020 -c 0 -i 93 -a 0 -x {0.2 4.0 -1 ------- null}
+ -t 0.779489142857143 -s 1 -d 4 -p encap -e 1020 -c 0 -i 93 -a 0 -x {0.2 4.0 -1 ------- null}
r -t 0.779489142857143 -s 1 -d 4 -p encap -e 1020 -c 0 -i 99 -a 0 -x {1.2 4.0 -1 ------- null}
r -t 0.779489142857143 -s 2 -d 4 -p encap -e 1020 -c 0 -i 105 -a 0 -x {2.2 4.0 -1 ------- null}
- -t 0.779489142857143 -s 1 -d 4 -p encap -e 1020 -c 0 -i 93 -a 0 -x {0.2 4.0 -1 ------- null}
h -t 0.779489142857143 -s 1 -d 4 -p encap -e 1020 -c 0 -i 93 -a 0 -x {0.2 4.0 -1 ------- null}
r -t 0.780305142857143 -s 0 -d 1 -p encap -e 1020 -c 0 -i 95 -a 0 -x {0.2 4.0 -1 ------- null}
+ -t 0.780305142857143 -s 1 -d 4 -p encap -e 1020 -c 0 -i 95 -a 0 -x {0.2 4.0 -1 ------- null}
r -t 0.780305142857143 -s 1 -d 4 -p encap -e 1020 -c 0 -i 101 -a 0 -x {1.2 4.0 -1 ------- null}
r -t 0.780305142857143 -s 2 -d 4 -p encap -e 1020 -c 0 -i 107 -a 0 -x {2.2 4.0 -1 ------- null}
- -t 0.780305142857143 -s 1 -d 4 -p encap -e 1020 -c 0 -i 95 -a 0 -x {0.2 4.0 -1 ------- null}
h -t 0.780305142857143 -s 1 -d 4 -p encap -e 1020 -c 0 -i 95 -a 0 -x {0.2 4.0 -1 ------- null}
r -t 0.789489142857143 -s 1 -d 4 -p encap -e 1020 -c 0 -i 91 -a 0 -x {0.2 4.0 -1 ------- null}
r -t 0.790305142857143 -s 1 -d 4 -p encap -e 1020 -c 0 -i 93 -a 0 -x {0.2 4.0 -1 ------- null}
r -t 0.791121142857143 -s 1 -d 4 -p encap -e 1020 -c 0 -i 95 -a 0 -x {0.2 4.0 -1 ------- null}
+ -t 0.821428571428572 -s 0 -d 1 -p encap -e 1020 -c 0 -i 109 -a 0 -x {0.2 4.0 -1 ------- null}
- -t 0.821428571428572 -s 0 -d 1 -p encap -e 1020 -c 0 -i 109 -a 0 -x {0.2 4.0 -1 ------- null}
h -t 0.821428571428572 -s 0 -d 1 -p encap -e 1020 -c 0 -i 109 -a 0 -x {0.2 4.0 -1 ------- null}
+ -t 0.821428571428572 -s 0 -d 1 -p encap -e 1020 -c 0 -i 111 -a 0 -x {0.2 4.0 -1 ------- null}
+ -t 0.821428571428572 -s 0 -d 1 -p encap -e 1020 -c 0 -i 113 -a 0 -x {0.2 4.0 -1 ------- null}
+ -t 0.821428571428572 -s 1 -d 4 -p encap -e 1020 -c 0 -i 115 -a 0 -x {1.2 4.0 -1 ------- null}
- -t 0.821428571428572 -s 1 -d 4 -p encap -e 1020 -c 0 -i 115 -a 0 -x {1.2 4.0 -1 ------- null}
h -t 0.821428571428572 -s 1 -d 4 -p encap -e 1020 -c 0 -i 115 -a 0 -x {1.2 4.0 -1 ------- null}
+ -t 0.821428571428572 -s 1 -d 4 -p encap -e 1020 -c 0 -i 117 -a 0 -x {1.2 4.0 -1 ------- null}
+ -t 0.821428571428572 -s 1 -d 4 -p encap -e 1020 -c 0 -i 119 -a 0 -x {1.2 4.0 -1 ------- null}
+ -t 0.821428571428572 -s 2 -d 4 -p encap -e 1020 -c 0 -i 121 -a 0 -x {2.2 4.0 -1 ------- null}
- -t 0.821428571428572 -s 2 -d 4 -p encap -e 1020 -c 0 -i 121 -a 0 -x {2.2 4.0 -1 ------- null}