V -t * -v 1.0a5 -a 0
A -t * -n 1 -p 0 -o 0x7fffffff -c 30 -a 1
A -t * -h 1 -m 1073741823 -s 0
c -t * -i 31 -n green
c -t * -i 1 -n red
c -t * -i 2 -n blue
c -t * -i 30 -n purple
c -t * -i 3 -n yellow
n -t * -a 8 -s 8 -S UP -v circle -c yellow -i yellow
n -t * -a 4 -s 4 -S UP -v circle -c black -i black
n -t * -a 0 -s 0 -S UP -v circle -c black -i black
n -t * -a 9 -s 9 -S UP -v circle -c blue -i blue
n -t * -a 5 -s 5 -S UP -v circle -c red -i red
n -t * -a 1 -s 1 -S UP -v circle -c black -i black
n -t * -a 6 -s 6 -S UP -v circle -c red -i red
n -t * -a 2 -s 2 -S UP -v circle -c black -i black
n -t * -a 7 -s 7 -S UP -v circle -c yellow -i yellow
n -t * -a 3 -s 3 -S UP -v circle -c blue -i blue
l -t * -s 0 -d 1 -S UP -r 10000000 -D 0.01 -c black -o left-down
l -t * -s 0 -d 2 -S UP -r 10000000 -D 0.01 -c black -o right-down
l -t * -s 1 -d 2 -S UP -r 10000000 -D 0.01 -c black -o right
l -t * -s 1 -d 3 -S UP -r 10000000 -D 0.01 -c black -o left-down
l -t * -s 1 -d 4 -S UP -r 10000000 -D 0.01 -c black -o right-down
l -t * -s 2 -d 4 -S UP -r 10000000 -D 0.01 -c black -o left-down
l -t * -s 2 -d 5 -S UP -r 10000000 -D 0.01 -c black -o right-down
l -t * -s 3 -d 4 -S UP -r 10000000 -D 0.01 -c black -o right
l -t * -s 4 -d 5 -S UP -r 10000000 -D 0.01 -c black -o right
l -t * -s 3 -d 6 -S UP -r 10000000 -D 0.01 -c black -o left-down
l -t * -s 3 -d 7 -S UP -r 10000000 -D 0.01 -c black -o right-down
l -t * -s 4 -d 7 -S UP -r 10000000 -D 0.01 -c black -o left-down
l -t * -s 4 -d 8 -S UP -r 10000000 -D 0.01 -c black -o right-down
l -t * -s 5 -d 8 -S UP -r 10000000 -D 0.01 -c black -o left-down
l -t * -s 5 -d 9 -S UP -r 10000000 -D 0.01 -c black -o right-down
l -t * -s 6 -d 7 -S UP -r 10000000 -D 0.01 -c black -o right
l -t * -s 7 -d 8 -S UP -r 10000000 -D 0.01 -c black -o right
l -t * -s 8 -d 9 -S UP -r 10000000 -D 0.01 -c black -o right
n -t 0 -s 0 -S DLABEL -l "source1" -L ""
n -t 0 -s 1 -S DLABEL -l "source2" -L ""
n -t 0 -s 2 -S DLABEL -l "source3" -L ""
+ -t 0.5 -s 0 -d 2 -p cbr -e 1000 -c 1 -i 0 -a 1 -x {0.1 1073741824.0 0 ------- null}
- -t 0.5 -s 0 -d 2 -p cbr -e 1000 -c 1 -i 0 -a 1 -x {0.1 1073741824.0 0 ------- null}
h -t 0.5 -s 0 -d 2 -p cbr -e 1000 -c 1 -i 0 -a 1 -x {0.1 1073741824.0 -1 ------- null}
+ -t 0.5 -s 0 -d 1 -p cbr -e 1000 -c 1 -i 0 -a 1 -x {0.1 1073741824.0 0 ------- null}
- -t 0.5 -s 0 -d 1 -p cbr -e 1000 -c 1 -i 0 -a 1 -x {0.1 1073741824.0 0 ------- null}
h -t 0.5 -s 0 -d 1 -p cbr -e 1000 -c 1 -i 0 -a 1 -x {0.1 1073741824.0 -1 ------- null}
+ -t 0.5 -s 0 -d 2 -p cbr -e 1000 -c 1 -i 1 -a 1 -x {0.1 1073741824.0 1 ------- null}
+ -t 0.5 -s 0 -d 1 -p cbr -e 1000 -c 1 -i 1 -a 1 -x {0.1 1073741824.0 1 ------- null}
+ -t 0.5 -s 0 -d 2 -p cbr -e 1000 -c 1 -i 2 -a 1 -x {0.1 1073741824.0 2 ------- null}
+ -t 0.5 -s 0 -d 1 -p cbr -e 1000 -c 1 -i 2 -a 1 -x {0.1 1073741824.0 2 ------- null}
+ -t 0.5 -s 1 -d 2 -p cbr -e 1000 -c 2 -i 3 -a 2 -x {1.1 1073741825.0 0 ------- null}
- -t 0.5 -s 1 -d 2 -p cbr -e 1000 -c 2 -i 3 -a 2 -x {1.1 1073741825.0 0 ------- null}
h -t 0.5 -s 1 -d 2 -p cbr -e 1000 -c 2 -i 3 -a 2 -x {1.1 1073741825.0 -1 ------- null}
+ -t 0.5 -s 1 -d 3 -p cbr -e 1000 -c 2 -i 3 -a 2 -x {1.1 1073741825.0 0 ------- null}
- -t 0.5 -s 1 -d 3 -p cbr -e 1000 -c 2 -i 3 -a 2 -x {1.1 1073741825.0 0 ------- null}
h -t 0.5 -s 1 -d 3 -p cbr -e 1000 -c 2 -i 3 -a 2 -x {1.1 1073741825.0 -1 ------- null}
+ -t 0.5 -s 1 -d 4 -p cbr -e 1000 -c 2 -i 3 -a 2 -x {1.1 1073741825.0 0 ------- null}
- -t 0.5 -s 1 -d 4 -p cbr -e 1000 -c 2 -i 3 -a 2 -x {1.1 1073741825.0 0 ------- null}
h -t 0.5 -s 1 -d 4 -p cbr -e 1000 -c 2 -i 3 -a 2 -x {1.1 1073741825.0 -1 ------- null}
+ -t 0.5 -s 1 -d 0 -p cbr -e 1000 -c 2 -i 3 -a 2 -x {1.1 1073741825.0 0 ------- null}
- -t 0.5 -s 1 -d 0 -p cbr -e 1000 -c 2 -i 3 -a 2 -x {1.1 1073741825.0 0 ------- null}
h -t 0.5 -s 1 -d 0 -p cbr -e 1000 -c 2 -i 3 -a 2 -x {1.1 1073741825.0 -1 ------- null}
+ -t 0.5 -s 1 -d 2 -p cbr -e 1000 -c 2 -i 4 -a 2 -x {1.1 1073741825.0 1 ------- null}
+ -t 0.5 -s 1 -d 3 -p cbr -e 1000 -c 2 -i 4 -a 2 -x {1.1 1073741825.0 1 ------- null}
+ -t 0.5 -s 1 -d 4 -p cbr -e 1000 -c 2 -i 4 -a 2 -x {1.1 1073741825.0 1 ------- null}
+ -t 0.5 -s 1 -d 0 -p cbr -e 1000 -c 2 -i 4 -a 2 -x {1.1 1073741825.0 1 ------- null}
+ -t 0.5 -s 1 -d 2 -p cbr -e 1000 -c 2 -i 5 -a 2 -x {1.1 1073741825.0 2 ------- null}
+ -t 0.5 -s 1 -d 3 -p cbr -e 1000 -c 2 -i 5 -a 2 -x {1.1 1073741825.0 2 ------- null}
+ -t 0.5 -s 1 -d 4 -p cbr -e 1000 -c 2 -i 5 -a 2 -x {1.1 1073741825.0 2 ------- null}
+ -t 0.5 -s 1 -d 0 -p cbr -e 1000 -c 2 -i 5 -a 2 -x {1.1 1073741825.0 2 ------- null}
+ -t 0.5 -s 2 -d 0 -p cbr -e 1000 -c 3 -i 6 -a 3 -x {2.1 1073741826.0 0 ------- null}
- -t 0.5 -s 2 -d 0 -p cbr -e 1000 -c 3 -i 6 -a 3 -x {2.1 1073741826.0 0 ------- null}
h -t 0.5 -s 2 -d 0 -p cbr -e 1000 -c 3 -i 6 -a 3 -x {2.1 1073741826.0 -1 ------- null}
+ -t 0.5 -s 2 -d 1 -p cbr -e 1000 -c 3 -i 6 -a 3 -x {2.1 1073741826.0 0 ------- null}
- -t 0.5 -s 2 -d 1 -p cbr -e 1000 -c 3 -i 6 -a 3 -x {2.1 1073741826.0 0 ------- null}
h -t 0.5 -s 2 -d 1 -p cbr -e 1000 -c 3 -i 6 -a 3 -x {2.1 1073741826.0 -1 ------- null}
+ -t 0.5 -s 2 -d 4 -p cbr -e 1000 -c 3 -i 6 -a 3 -x {2.1 1073741826.0 0 ------- null}
- -t 0.5 -s 2 -d 4 -p cbr -e 1000 -c 3 -i 6 -a 3 -x {2.1 1073741826.0 0 ------- null}
h -t 0.5 -s 2 -d 4 -p cbr -e 1000 -c 3 -i 6 -a 3 -x {2.1 1073741826.0 -1 ------- null}
+ -t 0.5 -s 2 -d 5 -p cbr -e 1000 -c 3 -i 6 -a 3 -x {2.1 1073741826.0 0 ------- null}
- -t 0.5 -s 2 -d 5 -p cbr -e 1000 -c 3 -i 6 -a 3 -x {2.1 1073741826.0 0 ------- null}
h -t 0.5 -s 2 -d 5 -p cbr -e 1000 -c 3 -i 6 -a 3 -x {2.1 1073741826.0 -1 ------- null}
+ -t 0.5 -s 2 -d 0 -p cbr -e 1000 -c 3 -i 7 -a 3 -x {2.1 1073741826.0 1 ------- null}
+ -t 0.5 -s 2 -d 1 -p cbr -e 1000 -c 3 -i 7 -a 3 -x {2.1 1073741826.0 1 ------- null}
+ -t 0.5 -s 2 -d 4 -p cbr -e 1000 -c 3 -i 7 -a 3 -x {2.1 1073741826.0 1 ------- null}
+ -t 0.5 -s 2 -d 5 -p cbr -e 1000 -c 3 -i 7 -a 3 -x {2.1 1073741826.0 1 ------- null}
+ -t 0.5 -s 2 -d 0 -p cbr -e 1000 -c 3 -i 8 -a 3 -x {2.1 1073741826.0 2 ------- null}
+ -t 0.5 -s 2 -d 1 -p cbr -e 1000 -c 3 -i 8 -a 3 -x {2.1 1073741826.0 2 ------- null}
+ -t 0.5 -s 2 -d 4 -p cbr -e 1000 -c 3 -i 8 -a 3 -x {2.1 1073741826.0 2 ------- null}
+ -t 0.5 -s 2 -d 5 -p cbr -e 1000 -c 3 -i 8 -a 3 -x {2.1 1073741826.0 2 ------- null}
- -t 0.5008 -s 0 -d 2 -p cbr -e 1000 -c 1 -i 1 -a 1 -x {0.1 1073741824.0 1 ------- null}
h -t 0.5008 -s 0 -d 2 -p cbr -e 1000 -c 1 -i 1 -a 1 -x {0.1 1073741824.0 -1 ------- null}
- -t 0.5008 -s 0 -d 1 -p cbr -e 1000 -c 1 -i 1 -a 1 -x {0.1 1073741824.0 1 ------- null}
h -t 0.5008 -s 0 -d 1 -p cbr -e 1000 -c 1 -i 1 -a 1 -x {0.1 1073741824.0 -1 ------- null}
- -t 0.5008 -s 1 -d 2 -p cbr -e 1000 -c 2 -i 4 -a 2 -x {1.1 1073741825.0 1 ------- null}
h -t 0.5008 -s 1 -d 2 -p cbr -e 1000 -c 2 -i 4 -a 2 -x {1.1 1073741825.0 -1 ------- null}
- -t 0.5008 -s 1 -d 3 -p cbr -e 1000 -c 2 -i 4 -a 2 -x {1.1 1073741825.0 1 ------- null}
h -t 0.5008 -s 1 -d 3 -p cbr -e 1000 -c 2 -i 4 -a 2 -x {1.1 1073741825.0 -1 ------- null}
- -t 0.5008 -s 1 -d 4 -p cbr -e 1000 -c 2 -i 4 -a 2 -x {1.1 1073741825.0 1 ------- null}
h -t 0.5008 -s 1 -d 4 -p cbr -e 1000 -c 2 -i 4 -a 2 -x {1.1 1073741825.0 -1 ------- null}
- -t 0.5008 -s 1 -d 0 -p cbr -e 1000 -c 2 -i 4 -a 2 -x {1.1 1073741825.0 1 ------- null}
h -t 0.5008 -s 1 -d 0 -p cbr -e 1000 -c 2 -i 4 -a 2 -x {1.1 1073741825.0 -1 ------- null}
- -t 0.5008 -s 2 -d 0 -p cbr -e 1000 -c 3 -i 7 -a 3 -x {2.1 1073741826.0 1 ------- null}
h -t 0.5008 -s 2 -d 0 -p cbr -e 1000 -c 3 -i 7 -a 3 -x {2.1 1073741826.0 -1 ------- null}
- -t 0.5008 -s 2 -d 1 -p cbr -e 1000 -c 3 -i 7 -a 3 -x {2.1 1073741826.0 1 ------- null}
h -t 0.5008 -s 2 -d 1 -p cbr -e 1000 -c 3 -i 7 -a 3 -x {2.1 1073741826.0 -1 ------- null}
- -t 0.5008 -s 2 -d 4 -p cbr -e 1000 -c 3 -i 7 -a 3 -x {2.1 1073741826.0 1 ------- null}
h -t 0.5008 -s 2 -d 4 -p cbr -e 1000 -c 3 -i 7 -a 3 -x {2.1 1073741826.0 -1 ------- null}
- -t 0.5008 -s 2 -d 5 -p cbr -e 1000 -c 3 -i 7 -a 3 -x {2.1 1073741826.0 1 ------- null}
h -t 0.5008 -s 2 -d 5 -p cbr -e 1000 -c 3 -i 7 -a 3 -x {2.1 1073741826.0 -1 ------- null}
- -t 0.5016 -s 0 -d 2 -p cbr -e 1000 -c 1 -i 2 -a 1 -x {0.1 1073741824.0 2 ------- null}
h -t 0.5016 -s 0 -d 2 -p cbr -e 1000 -c 1 -i 2 -a 1 -x {0.1 1073741824.0 -1 ------- null}
- -t 0.5016 -s 0 -d 1 -p cbr -e 1000 -c 1 -i 2 -a 1 -x {0.1 1073741824.0 2 ------- null}
h -t 0.5016 -s 0 -d 1 -p cbr -e 1000 -c 1 -i 2 -a 1 -x {0.1 1073741824.0 -1 ------- null}
- -t 0.5016 -s 1 -d 2 -p cbr -e 1000 -c 2 -i 5 -a 2 -x {1.1 1073741825.0 2 ------- null}
h -t 0.5016 -s 1 -d 2 -p cbr -e 1000 -c 2 -i 5 -a 2 -x {1.1 1073741825.0 -1 ------- null}
- -t 0.5016 -s 1 -d 3 -p cbr -e 1000 -c 2 -i 5 -a 2 -x {1.1 1073741825.0 2 ------- null}
h -t 0.5016 -s 1 -d 3 -p cbr -e 1000 -c 2 -i 5 -a 2 -x {1.1 1073741825.0 -1 ------- null}
- -t 0.5016 -s 1 -d 4 -p cbr -e 1000 -c 2 -i 5 -a 2 -x {1.1 1073741825.0 2 ------- null}
h -t 0.5016 -s 1 -d 4 -p cbr -e 1000 -c 2 -i 5 -a 2 -x {1.1 1073741825.0 -1 ------- null}
- -t 0.5016 -s 1 -d 0 -p cbr -e 1000 -c 2 -i 5 -a 2 -x {1.1 1073741825.0 2 ------- null}
h -t 0.5016 -s 1 -d 0 -p cbr -e 1000 -c 2 -i 5 -a 2 -x {1.1 1073741825.0 -1 ------- null}
- -t 0.5016 -s 2 -d 0 -p cbr -e 1000 -c 3 -i 8 -a 3 -x {2.1 1073741826.0 2 ------- null}
h -t 0.5016 -s 2 -d 0 -p cbr -e 1000 -c 3 -i 8 -a 3 -x {2.1 1073741826.0 -1 ------- null}
- -t 0.5016 -s 2 -d 1 -p cbr -e 1000 -c 3 -i 8 -a 3 -x {2.1 1073741826.0 2 ------- null}
h -t 0.5016 -s 2 -d 1 -p cbr -e 1000 -c 3 -i 8 -a 3 -x {2.1 1073741826.0 -1 ------- null}
- -t 0.5016 -s 2 -d 4 -p cbr -e 1000 -c 3 -i 8 -a 3 -x {2.1 1073741826.0 2 ------- null}
h -t 0.5016 -s 2 -d 4 -p cbr -e 1000 -c 3 -i 8 -a 3 -x {2.1 1073741826.0 -1 ------- null}
- -t 0.5016 -s 2 -d 5 -p cbr -e 1000 -c 3 -i 8 -a 3 -x {2.1 1073741826.0 2 ------- null}
h -t 0.5016 -s 2 -d 5 -p cbr -e 1000 -c 3 -i 8 -a 3 -x {2.1 1073741826.0 -1 ------- null}
r -t 0.5108 -s 0 -d 2 -p cbr -e 1000 -c 1 -i 0 -a 1 -x {0.1 1073741824.0 0 ------- null}
+ -t 0.5108 -s 2 -d 1 -p cbr -e 1000 -c 1 -i 0 -a 1 -x {0.1 1073741824.0 0 ------- null}
- -t 0.5108 -s 2 -d 1 -p cbr -e 1000 -c 1 -i 0 -a 1 -x {0.1 1073741824.0 0 ------- null}
h -t 0.5108 -s 2 -d 1 -p cbr -e 1000 -c 1 -i 0 -a 1 -x {0.1 1073741824.0 -1 ------- null}
+ -t 0.5108 -s 2 -d 4 -p cbr -e 1000 -c 1 -i 0 -a 1 -x {0.1 1073741824.0 0 ------- null}
- -t 0.5108 -s 2 -d 4 -p cbr -e 1000 -c 1 -i 0 -a 1 -x {0.1 1073741824.0 0 ------- null}
h -t 0.5108 -s 2 -d 4 -p cbr -e 1000 -c 1 -i 0 -a 1 -x {0.1 1073741824.0 -1 ------- null}
+ -t 0.5108 -s 2 -d 5 -p cbr -e 1000 -c 1 -i 0 -a 1 -x {0.1 1073741824.0 0 ------- null}
- -t 0.5108 -s 2 -d 5 -p cbr -e 1000 -c 1 -i 0 -a 1 -x {0.1 1073741824.0 0 ------- null}
h -t 0.5108 -s 2 -d 5 -p cbr -e 1000 -c 1 -i 0 -a 1 -x {0.1 1073741824.0 -1 ------- null}
r -t 0.5108 -s 0 -d 1 -p cbr -e 1000 -c 1 -i 0 -a 1 -x {0.1 1073741824.0 0 ------- null}
+ -t 0.5108 -s 1 -d 2 -p cbr -e 1000 -c 1 -i 0 -a 1 -x {0.1 1073741824.0 0 ------- null}
- -t 0.5108 -s 1 -d 2 -p cbr -e 1000 -c 1 -i 0 -a 1 -x {0.1 1073741824.0 0 ------- null}
h -t 0.5108 -s 1 -d 2 -p cbr -e 1000 -c 1 -i 0 -a 1 -x {0.1 1073741824.0 -1 ------- null}
+ -t 0.5108 -s 1 -d 3 -p cbr -e 1000 -c 1 -i 0 -a 1 -x {0.1 1073741824.0 0 ------- null}
- -t 0.5108 -s 1 -d 3 -p cbr -e 1000 -c 1 -i 0 -a 1 -x {0.1 1073741824.0 0 ------- null}
h -t 0.5108 -s 1 -d 3 -p cbr -e 1000 -c 1 -i 0 -a 1 -x {0.1 1073741824.0 -1 ------- null}
+ -t 0.5108 -s 1 -d 4 -p cbr -e 1000 -c 1 -i 0 -a 1 -x {0.1 1073741824.0 0 ------- null}
- -t 0.5108 -s 1 -d 4 -p cbr -e 1000 -c 1 -i 0 -a 1 -x {0.1 1073741824.0 0 ------- null}
h -t 0.5108 -s 1 -d 4 -p cbr -e 1000 -c 1 -i 0 -a 1 -x {0.1 1073741824.0 -1 ------- null}
r -t 0.5108 -s 1 -d 2 -p cbr -e 1000 -c 2 -i 3 -a 2 -x {1.1 1073741825.0 0 ------- null}
+ -t 0.5108 -s 2 -d 0 -p cbr -e 1000 -c 2 -i 3 -a 2 -x {1.1 1073741825.0 0 ------- null}
- -t 0.5108 -s 2 -d 0 -p cbr -e 1000 -c 2 -i 3 -a 2 -x {1.1 1073741825.0 0 ------- null}
h -t 0.5108 -s 2 -d 0 -p cbr -e 1000 -c 2 -i 3 -a 2 -x {1.1 1073741825.0 -1 ------- null}
+ -t 0.5108 -s 2 -d 4 -p cbr -e 1000 -c 2 -i 3 -a 2 -x {1.1 1073741825.0 0 ------- null}
+ -t 0.5108 -s 2 -d 5 -p cbr -e 1000 -c 2 -i 3 -a 2 -x {1.1 1073741825.0 0 ------- null}
r -t 0.5108 -s 1 -d 3 -p cbr -e 1000 -c 2 -i 3 -a 2 -x {1.1 1073741825.0 0 ------- null}
+ -t 0.5108 -s 3 -d 4 -p cbr -e 1000 -c 2 -i 3 -a 2 -x {1.1 1073741825.0 0 ------- null}
- -t 0.5108 -s 3 -d 4 -p cbr -e 1000 -c 2 -i 3 -a 2 -x {1.1 1073741825.0 0 ------- null}
h -t 0.5108 -s 3 -d 4 -p cbr -e 1000 -c 2 -i 3 -a 2 -x {1.1 1073741825.0 -1 ------- null}
+ -t 0.5108 -s 3 -d 6 -p cbr -e 1000 -c 2 -i 3 -a 2 -x {1.1 1073741825.0 0 ------- null}
- -t 0.5108 -s 3 -d 6 -p cbr -e 1000 -c 2 -i 3 -a 2 -x {1.1 1073741825.0 0 ------- null}
h -t 0.5108 -s 3 -d 6 -p cbr -e 1000 -c 2 -i 3 -a 2 -x {1.1 1073741825.0 -1 ------- null}
+ -t 0.5108 -s 3 -d 7 -p cbr -e 1000 -c 2 -i 3 -a 2 -x {1.1 1073741825.0 0 ------- null}
- -t 0.5108 -s 3 -d 7 -p cbr -e 1000 -c 2 -i 3 -a 2 -x {1.1 1073741825.0 0 ------- null}
h -t 0.5108 -s 3 -d 7 -p cbr -e 1000 -c 2 -i 3 -a 2 -x {1.1 1073741825.0 -1 ------- null}
r -t 0.5108 -s 1 -d 4 -p cbr -e 1000 -c 2 -i 3 -a 2 -x {1.1 1073741825.0 0 ------- null}
+ -t 0.5108 -s 4 -d 2 -p cbr -e 1000 -c 2 -i 3 -a 2 -x {1.1 1073741825.0 0 ------- null}
- -t 0.5108 -s 4 -d 2 -p cbr -e 1000 -c 2 -i 3 -a 2 -x {1.1 1073741825.0 0 ------- null}
h -t 0.5108 -s 4 -d 2 -p cbr -e 1000 -c 2 -i 3 -a 2 -x {1.1 1073741825.0 -1 ------- null}
+ -t 0.5108 -s 4 -d 3 -p cbr -e 1000 -c 2 -i 3 -a 2 -x {1.1 1073741825.0 0 ------- null}
- -t 0.5108 -s 4 -d 3 -p cbr -e 1000 -c 2 -i 3 -a 2 -x {1.1 1073741825.0 0 ------- null}
h -t 0.5108 -s 4 -d 3 -p cbr -e 1000 -c 2 -i 3 -a 2 -x {1.1 1073741825.0 -1 ------- null}
+ -t 0.5108 -s 4 -d 5 -p cbr -e 1000 -c 2 -i 3 -a 2 -x {1.1 1073741825.0 0 ------- null}
- -t 0.5108 -s 4 -d 5 -p cbr -e 1000 -c 2 -i 3 -a 2 -x {1.1 1073741825.0 0 ------- null}
h -t 0.5108 -s 4 -d 5 -p cbr -e 1000 -c 2 -i 3 -a 2 -x {1.1 1073741825.0 -1 ------- null}
+ -t 0.5108 -s 4 -d 7 -p cbr -e 1000 -c 2 -i 3 -a 2 -x {1.1 1073741825.0 0 ------- null}
- -t 0.5108 -s 4 -d 7 -p cbr -e 1000 -c 2 -i 3 -a 2 -x {1.1 1073741825.0 0 ------- null}
h -t 0.5108 -s 4 -d 7 -p cbr -e 1000 -c 2 -i 3 -a 2 -x {1.1 1073741825.0 -1 ------- null}
+ -t 0.5108 -s 4 -d 8 -p cbr -e 1000 -c 2 -i 3 -a 2 -x {1.1 1073741825.0 0 ------- null}
- -t 0.5108 -s 4 -d 8 -p cbr -e 1000 -c 2 -i 3 -a 2 -x {1.1 1073741825.0 0 ------- null}
h -t 0.5108 -s 4 -d 8 -p cbr -e 1000 -c 2 -i 3 -a 2 -x {1.1 1073741825.0 -1 ------- null}
r -t 0.5108 -s 1 -d 0 -p cbr -e 1000 -c 2 -i 3 -a 2 -x {1.1 1073741825.0 0 ------- null}
+ -t 0.5108 -s 0 -d 2 -p cbr -e 1000 -c 2 -i 3 -a 2 -x {1.1 1073741825.0 0 ------- null}
- -t 0.5108 -s 0 -d 2 -p cbr -e 1000 -c 2 -i 3 -a 2 -x {1.1 1073741825.0 0 ------- null}
h -t 0.5108 -s 0 -d 2 -p cbr -e 1000 -c 2 -i 3 -a 2 -x {1.1 1073741825.0 -1 ------- null}
r -t 0.5108 -s 2 -d 0 -p cbr -e 1000 -c 3 -i 6 -a 3 -x {2.1 1073741826.0 0 ------- null}
+ -t 0.5108 -s 0 -d 1 -p cbr -e 1000 -c 3 -i 6 -a 3 -x {2.1 1073741826.0 0 ------- null}
- -t 0.5108 -s 0 -d 1 -p cbr -e 1000 -c 3 -i 6 -a 3 -x {2.1 1073741826.0 0 ------- null}
h -t 0.5108 -s 0 -d 1 -p cbr -e 1000 -c 3 -i 6 -a 3 -x {2.1 1073741826.0 -1 ------- null}
r -t 0.5108 -s 2 -d 1 -p cbr -e 1000 -c 3 -i 6 -a 3 -x {2.1 1073741826.0 0 ------- null}
+ -t 0.5108 -s 1 -d 3 -p cbr -e 1000 -c 3 -i 6 -a 3 -x {2.1 1073741826.0 0 ------- null}
+ -t 0.5108 -s 1 -d 4 -p cbr -e 1000 -c 3 -i 6 -a 3 -x {2.1 1073741826.0 0 ------- null}
+ -t 0.5108 -s 1 -d 0 -p cbr -e 1000 -c 3 -i 6 -a 3 -x {2.1 1073741826.0 0 ------- null}
- -t 0.5108 -s 1 -d 0 -p cbr -e 1000 -c 3 -i 6 -a 3 -x {2.1 1073741826.0 0 ------- null}
h -t 0.5108 -s 1 -d 0 -p cbr -e 1000 -c 3 -i 6 -a 3 -x {2.1 1073741826.0 -1 ------- null}
r -t 0.5108 -s 2 -d 4 -p cbr -e 1000 -c 3 -i 6 -a 3 -x {2.1 1073741826.0 0 ------- null}
+ -t 0.5108 -s 4 -d 1 -p cbr -e 1000 -c 3 -i 6 -a 3 -x {2.1 1073741826.0 0 ------- null}
- -t 0.5108 -s 4 -d 1 -p cbr -e 1000 -c 3 -i 6 -a 3 -x {2.1 1073741826.0 0 ------- null}
h -t 0.5108 -s 4 -d 1 -p cbr -e 1000 -c 3 -i 6 -a 3 -x {2.1 1073741826.0 -1 ------- null}
+ -t 0.5108 -s 4 -d 3 -p cbr -e 1000 -c 3 -i 6 -a 3 -x {2.1 1073741826.0 0 ------- null}
+ -t 0.5108 -s 4 -d 5 -p cbr -e 1000 -c 3 -i 6 -a 3 -x {2.1 1073741826.0 0 ------- null}
+ -t 0.5108 -s 4 -d 7 -p cbr -e 1000 -c 3 -i 6 -a 3 -x {2.1 1073741826.0 0 ------- null}
+ -t 0.5108 -s 4 -d 8 -p cbr -e 1000 -c 3 -i 6 -a 3 -x {2.1 1073741826.0 0 ------- null}
r -t 0.5108 -s 2 -d 5 -p cbr -e 1000 -c 3 -i 6 -a 3 -x {2.1 1073741826.0 0 ------- null}
+ -t 0.5108 -s 5 -d 4 -p cbr -e 1000 -c 3 -i 6 -a 3 -x {2.1 1073741826.0 0 ------- null}
- -t 0.5108 -s 5 -d 4 -p cbr -e 1000 -c 3 -i 6 -a 3 -x {2.1 1073741826.0 0 ------- null}
h -t 0.5108 -s 5 -d 4 -p cbr -e 1000 -c 3 -i 6 -a 3 -x {2.1 1073741826.0 -1 ------- null}
+ -t 0.5108 -s 5 -d 8 -p cbr -e 1000 -c 3 -i 6 -a 3 -x {2.1 1073741826.0 0 ------- null}
- -t 0.5108 -s 5 -d 8 -p cbr -e 1000 -c 3 -i 6 -a 3 -x {2.1 1073741826.0 0 ------- null}
h -t 0.5108 -s 5 -d 8 -p cbr -e 1000 -c 3 -i 6 -a 3 -x {2.1 1073741826.0 -1 ------- null}
+ -t 0.5108 -s 5 -d 9 -p cbr -e 1000 -c 3 -i 6 -a 3 -x {2.1 1073741826.0 0 ------- null}
- -t 0.5108 -s 5 -d 9 -p cbr -e 1000 -c 3 -i 6 -a 3 -x {2.1 1073741826.0 0 ------- null}
h -t 0.5108 -s 5 -d 9 -p cbr -e 1000 -c 3 -i 6 -a 3 -x {2.1 1073741826.0 -1 ------- null}
r -t 0.5116 -s 0 -d 2 -p cbr -e 1000 -c 1 -i 1 -a 1 -x {0.1 1073741824.0 1 ------- null}
+ -t 0.5116 -s 2 -d 1 -p cbr -e 1000 -c 1 -i 1 -a 1 -x {0.1 1073741824.0 1 ------- null}
+ -t 0.5116 -s 2 -d 4 -p cbr -e 1000 -c 1 -i 1 -a 1 -x {0.1 1073741824.0 1 ------- null}
+ -t 0.5116 -s 2 -d 5 -p cbr -e 1000 -c 1 -i 1 -a 1 -x {0.1 1073741824.0 1 ------- null}
r -t 0.5116 -s 0 -d 1 -p cbr -e 1000 -c 1 -i 1 -a 1 -x {0.1 1073741824.0 1 ------- null}
+ -t 0.5116 -s 1 -d 2 -p cbr -e 1000 -c 1 -i 1 -a 1 -x {0.1 1073741824.0 1 ------- null}
+ -t 0.5116 -s 1 -d 3 -p cbr -e 1000 -c 1 -i 1 -a 1 -x {0.1 1073741824.0 1 ------- null}
+ -t 0.5116 -s 1 -d 4 -p cbr -e 1000 -c 1 -i 1 -a 1 -x {0.1 1073741824.0 1 ------- null}
r -t 0.5116 -s 1 -d 2 -p cbr -e 1000 -c 2 -i 4 -a 2 -x {1.1 1073741825.0 1 ------- null}
+ -t 0.5116 -s 2 -d 0 -p cbr -e 1000 -c 2 -i 4 -a 2 -x {1.1 1073741825.0 1 ------- null}
+ -t 0.5116 -s 2 -d 4 -p cbr -e 1000 -c 2 -i 4 -a 2 -x {1.1 1073741825.0 1 ------- null}
+ -t 0.5116 -s 2 -d 5 -p cbr -e 1000 -c 2 -i 4 -a 2 -x {1.1 1073741825.0 1 ------- null}
r -t 0.5116 -s 1 -d 3 -p cbr -e 1000 -c 2 -i 4 -a 2 -x {1.1 1073741825.0 1 ------- null}
+ -t 0.5116 -s 3 -d 4 -p cbr -e 1000 -c 2 -i 4 -a 2 -x {1.1 1073741825.0 1 ------- null}
+ -t 0.5116 -s 3 -d 6 -p cbr -e 1000 -c 2 -i 4 -a 2 -x {1.1 1073741825.0 1 ------- null}
+ -t 0.5116 -s 3 -d 7 -p cbr -e 1000 -c 2 -i 4 -a 2 -x {1.1 1073741825.0 1 ------- null}
r -t 0.5116 -s 1 -d 4 -p cbr -e 1000 -c 2 -i 4 -a 2 -x {1.1 1073741825.0 1 ------- null}
+ -t 0.5116 -s 4 -d 2 -p cbr -e 1000 -c 2 -i 4 -a 2 -x {1.1 1073741825.0 1 ------- null}
+ -t 0.5116 -s 4 -d 3 -p cbr -e 1000 -c 2 -i 4 -a 2 -x {1.1 1073741825.0 1 ------- null}
+ -t 0.5116 -s 4 -d 5 -p cbr -e 1000 -c 2 -i 4 -a 2 -x {1.1 1073741825.0 1 ------- null}
+ -t 0.5116 -s 4 -d 7 -p cbr -e 1000 -c 2 -i 4 -a 2 -x {1.1 1073741825.0 1 ------- null}
+ -t 0.5116 -s 4 -d 8 -p cbr -e 1000 -c 2 -i 4 -a 2 -x {1.1 1073741825.0 1 ------- null}
r -t 0.5116 -s 1 -d 0 -p cbr -e 1000 -c 2 -i 4 -a 2 -x {1.1 1073741825.0 1 ------- null}
+ -t 0.5116 -s 0 -d 2 -p cbr -e 1000 -c 2 -i 4 -a 2 -x {1.1 1073741825.0 1 ------- null}
r -t 0.5116 -s 2 -d 0 -p cbr -e 1000 -c 3 -i 7 -a 3 -x {2.1 1073741826.0 1 ------- null}
+ -t 0.5116 -s 0 -d 1 -p cbr -e 1000 -c 3 -i 7 -a 3 -x {2.1 1073741826.0 1 ------- null}
r -t 0.5116 -s 2 -d 1 -p cbr -e 1000 -c 3 -i 7 -a 3 -x {2.1 1073741826.0 1 ------- null}
+ -t 0.5116 -s 1 -d 3 -p cbr -e 1000 -c 3 -i 7 -a 3 -x {2.1 1073741826.0 1 ------- null}
+ -t 0.5116 -s 1 -d 4 -p cbr -e 1000 -c 3 -i 7 -a 3 -x {2.1 1073741826.0 1 ------- null}
+ -t 0.5116 -s 1 -d 0 -p cbr -e 1000 -c 3 -i 7 -a 3 -x {2.1 1073741826.0 1 ------- null}
r -t 0.5116 -s 2 -d 4 -p cbr -e 1000 -c 3 -i 7 -a 3 -x {2.1 1073741826.0 1 ------- null}
+ -t 0.5116 -s 4 -d 1 -p cbr -e 1000 -c 3 -i 7 -a 3 -x {2.1 1073741826.0 1 ------- null}
+ -t 0.5116 -s 4 -d 3 -p cbr -e 1000 -c 3 -i 7 -a 3 -x {2.1 1073741826.0 1 ------- null}
+ -t 0.5116 -s 4 -d 5 -p cbr -e 1000 -c 3 -i 7 -a 3 -x {2.1 1073741826.0 1 ------- null}
+ -t 0.5116 -s 4 -d 7 -p cbr -e 1000 -c 3 -i 7 -a 3 -x {2.1 1073741826.0 1 ------- null}
+ -t 0.5116 -s 4 -d 8 -p cbr -e 1000 -c 3 -i 7 -a 3 -x {2.1 1073741826.0 1 ------- null}
r -t 0.5116 -s 2 -d 5 -p cbr -e 1000 -c 3 -i 7 -a 3 -x {2.1 1073741826.0 1 ------- null}
+ -t 0.5116 -s 5 -d 4 -p cbr -e 1000 -c 3 -i 7 -a 3 -x {2.1 1073741826.0 1 ------- null}
+ -t 0.5116 -s 5 -d 8 -p cbr -e 1000 -c 3 -i 7 -a 3 -x {2.1 1073741826.0 1 ------- null}
+ -t 0.5116 -s 5 -d 9 -p cbr -e 1000 -c 3 -i 7 -a 3 -x {2.1 1073741826.0 1 ------- null}
- -t 0.5116 -s 2 -d 1 -p cbr -e 1000 -c 1 -i 1 -a 1 -x {0.1 1073741824.0 1 ------- null}
h -t 0.5116 -s 2 -d 1 -p cbr -e 1000 -c 1 -i 1 -a 1 -x {0.1 1073741824.0 -1 ------- null}
- -t 0.5116 -s 2 -d 4 -p cbr -e 1000 -c 2 -i 3 -a 2 -x {1.1 1073741825.0 0 ------- null}
h -t 0.5116 -s 2 -d 4 -p cbr -e 1000 -c 2 -i 3 -a 2 -x {1.1 1073741825.0 -1 ------- null}
- -t 0.5116 -s 2 -d 5 -p cbr -e 1000 -c 2 -i 3 -a 2 -x {1.1 1073741825.0 0 ------- null}
h -t 0.5116 -s 2 -d 5 -p cbr -e 1000 -c 2 -i 3 -a 2 -x {1.1 1073741825.0 -1 ------- null}
- -t 0.5116 -s 1 -d 2 -p cbr -e 1000 -c 1 -i 1 -a 1 -x {0.1 1073741824.0 1 ------- null}
h -t 0.5116 -s 1 -d 2 -p cbr -e 1000 -c 1 -i 1 -a 1 -x {0.1 1073741824.0 -1 ------- null}
- -t 0.5116 -s 1 -d 3 -p cbr -e 1000 -c 3 -i 6 -a 3 -x {2.1 1073741826.0 0 ------- null}
h -t 0.5116 -s 1 -d 3 -p cbr -e 1000 -c 3 -i 6 -a 3 -x {2.1 1073741826.0 -1 ------- null}
- -t 0.5116 -s 1 -d 4 -p cbr -e 1000 -c 3 -i 6 -a 3 -x {2.1 1073741826.0 0 ------- null}
h -t 0.5116 -s 1 -d 4 -p cbr -e 1000 -c 3 -i 6 -a 3 -x {2.1 1073741826.0 -1 ------- null}
- -t 0.5116 -s 2 -d 0 -p cbr -e 1000 -c 2 -i 4 -a 2 -x {1.1 1073741825.0 1 ------- null}
h -t 0.5116 -s 2 -d 0 -p cbr -e 1000 -c 2 -i 4 -a 2 -x {1.1 1073741825.0 -1 ------- null}
- -t 0.5116 -s 3 -d 4 -p cbr -e 1000 -c 2 -i 4 -a 2 -x {1.1 1073741825.0 1 ------- null}
h -t 0.5116 -s 3 -d 4 -p cbr -e 1000 -c 2 -i 4 -a 2 -x {1.1 1073741825.0 -1 ------- null}
- -t 0.5116 -s 3 -d 6 -p cbr -e 1000 -c 2 -i 4 -a 2 -x {1.1 1073741825.0 1 ------- null}
h -t 0.5116 -s 3 -d 6 -p cbr -e 1000 -c 2 -i 4 -a 2 -x {1.1 1073741825.0 -1 ------- null}
- -t 0.5116 -s 3 -d 7 -p cbr -e 1000 -c 2 -i 4 -a 2 -x {1.1 1073741825.0 1 ------- null}
h -t 0.5116 -s 3 -d 7 -p cbr -e 1000 -c 2 -i 4 -a 2 -x {1.1 1073741825.0 -1 ------- null}
- -t 0.5116 -s 4 -d 2 -p cbr -e 1000 -c 2 -i 4 -a 2 -x {1.1 1073741825.0 1 ------- null}
h -t 0.5116 -s 4 -d 2 -p cbr -e 1000 -c 2 -i 4 -a 2 -x {1.1 1073741825.0 -1 ------- null}
- -t 0.5116 -s 4 -d 3 -p cbr -e 1000 -c 3 -i 6 -a 3 -x {2.1 1073741826.0 0 ------- null}
h -t 0.5116 -s 4 -d 3 -p cbr -e 1000 -c 3 -i 6 -a 3 -x {2.1 1073741826.0 -1 ------- null}
- -t 0.5116 -s 4 -d 5 -p cbr -e 1000 -c 3 -i 6 -a 3 -x {2.1 1073741826.0 0 ------- null}
h -t 0.5116 -s 4 -d 5 -p cbr -e 1000 -c 3 -i 6 -a 3 -x {2.1 1073741826.0 -1 ------- null}
- -t 0.5116 -s 4 -d 7 -p cbr -e 1000 -c 3 -i 6 -a 3 -x {2.1 1073741826.0 0 ------- null}
h -t 0.5116 -s 4 -d 7 -p cbr -e 1000 -c 3 -i 6 -a 3 -x {2.1 1073741826.0 -1 ------- null}
- -t 0.5116 -s 4 -d 8 -p cbr -e 1000 -c 3 -i 6 -a 3 -x {2.1 1073741826.0 0 ------- null}
h -t 0.5116 -s 4 -d 8 -p cbr -e 1000 -c 3 -i 6 -a 3 -x {2.1 1073741826.0 -1 ------- null}
- -t 0.5116 -s 0 -d 2 -p cbr -e 1000 -c 2 -i 4 -a 2 -x {1.1 1073741825.0 1 ------- null}
h -t 0.5116 -s 0 -d 2 -p cbr -e 1000 -c 2 -i 4 -a 2 -x {1.1 1073741825.0 -1 ------- null}
- -t 0.5116 -s 0 -d 1 -p cbr -e 1000 -c 3 -i 7 -a 3 -x {2.1 1073741826.0 1 ------- null}
h -t 0.5116 -s 0 -d 1 -p cbr -e 1000 -c 3 -i 7 -a 3 -x {2.1 1073741826.0 -1 ------- null}
- -t 0.5116 -s 1 -d 0 -p cbr -e 1000 -c 3 -i 7 -a 3 -x {2.1 1073741826.0 1 ------- null}
h -t 0.5116 -s 1 -d 0 -p cbr -e 1000 -c 3 -i 7 -a 3 -x {2.1 1073741826.0 -1 ------- null}
- -t 0.5116 -s 4 -d 1 -p cbr -e 1000 -c 3 -i 7 -a 3 -x {2.1 1073741826.0 1 ------- null}
h -t 0.5116 -s 4 -d 1 -p cbr -e 1000 -c 3 -i 7 -a 3 -x {2.1 1073741826.0 -1 ------- null}
- -t 0.5116 -s 5 -d 4 -p cbr -e 1000 -c 3 -i 7 -a 3 -x {2.1 1073741826.0 1 ------- null}
h -t 0.5116 -s 5 -d 4 -p cbr -e 1000 -c 3 -i 7 -a 3 -x {2.1 1073741826.0 -1 ------- null}
- -t 0.5116 -s 5 -d 8 -p cbr -e 1000 -c 3 -i 7 -a 3 -x {2.1 1073741826.0 1 ------- null}
h -t 0.5116 -s 5 -d 8 -p cbr -e 1000 -c 3 -i 7 -a 3 -x {2.1 1073741826.0 -1 ------- null}
- -t 0.5116 -s 5 -d 9 -p cbr -e 1000 -c 3 -i 7 -a 3 -x {2.1 1073741826.0 1 ------- null}
h -t 0.5116 -s 5 -d 9 -p cbr -e 1000 -c 3 -i 7 -a 3 -x {2.1 1073741826.0 -1 ------- null}
r -t 0.5124 -s 0 -d 2 -p cbr -e 1000 -c 1 -i 2 -a 1 -x {0.1 1073741824.0 2 ------- null}
+ -t 0.5124 -s 2 -d 1 -p cbr -e 1000 -c 1 -i 2 -a 1 -x {0.1 1073741824.0 2 ------- null}
+ -t 0.5124 -s 2 -d 4 -p cbr -e 1000 -c 1 -i 2 -a 1 -x {0.1 1073741824.0 2 ------- null}
+ -t 0.5124 -s 2 -d 5 -p cbr -e 1000 -c 1 -i 2 -a 1 -x {0.1 1073741824.0 2 ------- null}
r -t 0.5124 -s 0 -d 1 -p cbr -e 1000 -c 1 -i 2 -a 1 -x {0.1 1073741824.0 2 ------- null}
+ -t 0.5124 -s 1 -d 2 -p cbr -e 1000 -c 1 -i 2 -a 1 -x {0.1 1073741824.0 2 ------- null}
+ -t 0.5124 -s 1 -d 3 -p cbr -e 1000 -c 1 -i 2 -a 1 -x {0.1 1073741824.0 2 ------- null}
+ -t 0.5124 -s 1 -d 4 -p cbr -e 1000 -c 1 -i 2 -a 1 -x {0.1 1073741824.0 2 ------- null}
r -t 0.5124 -s 1 -d 2 -p cbr -e 1000 -c 2 -i 5 -a 2 -x {1.1 1073741825.0 2 ------- null}
+ -t 0.5124 -s 2 -d 0 -p cbr -e 1000 -c 2 -i 5 -a 2 -x {1.1 1073741825.0 2 ------- null}
+ -t 0.5124 -s 2 -d 4 -p cbr -e 1000 -c 2 -i 5 -a 2 -x {1.1 1073741825.0 2 ------- null}
+ -t 0.5124 -s 2 -d 5 -p cbr -e 1000 -c 2 -i 5 -a 2 -x {1.1 1073741825.0 2 ------- null}
r -t 0.5124 -s 1 -d 3 -p cbr -e 1000 -c 2 -i 5 -a 2 -x {1.1 1073741825.0 2 ------- null}
+ -t 0.5124 -s 3 -d 4 -p cbr -e 1000 -c 2 -i 5 -a 2 -x {1.1 1073741825.0 2 ------- null}
+ -t 0.5124 -s 3 -d 6 -p cbr -e 1000 -c 2 -i 5 -a 2 -x {1.1 1073741825.0 2 ------- null}
+ -t 0.5124 -s 3 -d 7 -p cbr -e 1000 -c 2 -i 5 -a 2 -x {1.1 1073741825.0 2 ------- null}
r -t 0.5124 -s 1 -d 4 -p cbr -e 1000 -c 2 -i 5 -a 2 -x {1.1 1073741825.0 2 ------- null}
+ -t 0.5124 -s 4 -d 2 -p cbr -e 1000 -c 2 -i 5 -a 2 -x {1.1 1073741825.0 2 ------- null}
+ -t 0.5124 -s 4 -d 3 -p cbr -e 1000 -c 2 -i 5 -a 2 -x {1.1 1073741825.0 2 ------- null}
+ -t 0.5124 -s 4 -d 5 -p cbr -e 1000 -c 2 -i 5 -a 2 -x {1.1 1073741825.0 2 ------- null}
+ -t 0.5124 -s 4 -d 7 -p cbr -e 1000 -c 2 -i 5 -a 2 -x {1.1 1073741825.0 2 ------- null}
+ -t 0.5124 -s 4 -d 8 -p cbr -e 1000 -c 2 -i 5 -a 2 -x {1.1 1073741825.0 2 ------- null}
r -t 0.5124 -s 1 -d 0 -p cbr -e 1000 -c 2 -i 5 -a 2 -x {1.1 1073741825.0 2 ------- null}
+ -t 0.5124 -s 0 -d 2 -p cbr -e 1000 -c 2 -i 5 -a 2 -x {1.1 1073741825.0 2 ------- null}
r -t 0.5124 -s 2 -d 0 -p cbr -e 1000 -c 3 -i 8 -a 3 -x {2.1 1073741826.0 2 ------- null}
+ -t 0.5124 -s 0 -d 1 -p cbr -e 1000 -c 3 -i 8 -a 3 -x {2.1 1073741826.0 2 ------- null}
r -t 0.5124 -s 2 -d 1 -p cbr -e 1000 -c 3 -i 8 -a 3 -x {2.1 1073741826.0 2 ------- null}
+ -t 0.5124 -s 1 -d 3 -p cbr -e 1000 -c 3 -i 8 -a 3 -x {2.1 1073741826.0 2 ------- null}
+ -t 0.5124 -s 1 -d 4 -p cbr -e 1000 -c 3 -i 8 -a 3 -x {2.1 1073741826.0 2 ------- null}
+ -t 0.5124 -s 1 -d 0 -p cbr -e 1000 -c 3 -i 8 -a 3 -x {2.1 1073741826.0 2 ------- null}
r -t 0.5124 -s 2 -d 4 -p cbr -e 1000 -c 3 -i 8 -a 3 -x {2.1 1073741826.0 2 ------- null}
+ -t 0.5124 -s 4 -d 1 -p cbr -e 1000 -c 3 -i 8 -a 3 -x {2.1 1073741826.0 2 ------- null}
+ -t 0.5124 -s 4 -d 3 -p cbr -e 1000 -c 3 -i 8 -a 3 -x {2.1 1073741826.0 2 ------- null}
+ -t 0.5124 -s 4 -d 5 -p cbr -e 1000 -c 3 -i 8 -a 3 -x {2.1 1073741826.0 2 ------- null}
+ -t 0.5124 -s 4 -d 7 -p cbr -e 1000 -c 3 -i 8 -a 3 -x {2.1 1073741826.0 2 ------- null}
+ -t 0.5124 -s 4 -d 8 -p cbr -e 1000 -c 3 -i 8 -a 3 -x {2.1 1073741826.0 2 ------- null}
r -t 0.5124 -s 2 -d 5 -p cbr -e 1000 -c 3 -i 8 -a 3 -x {2.1 1073741826.0 2 ------- null}
+ -t 0.5124 -s 5 -d 4 -p cbr -e 1000 -c 3 -i 8 -a 3 -x {2.1 1073741826.0 2 ------- null}
+ -t 0.5124 -s 5 -d 8 -p cbr -e 1000 -c 3 -i 8 -a 3 -x {2.1 1073741826.0 2 ------- null}
+ -t 0.5124 -s 5 -d 9 -p cbr -e 1000 -c 3 -i 8 -a 3 -x {2.1 1073741826.0 2 ------- null}
- -t 0.5124 -s 2 -d 1 -p cbr -e 1000 -c 1 -i 2 -a 1 -x {0.1 1073741824.0 2 ------- null}
h -t 0.5124 -s 2 -d 1 -p cbr -e 1000 -c 1 -i 2 -a 1 -x {0.1 1073741824.0 -1 ------- null}
- -t 0.5124 -s 2 -d 4 -p cbr -e 1000 -c 1 -i 1 -a 1 -x {0.1 1073741824.0 1 ------- null}
h -t 0.5124 -s 2 -d 4 -p cbr -e 1000 -c 1 -i 1 -a 1 -x {0.1 1073741824.0 -1 ------- null}
- -t 0.5124 -s 2 -d 5 -p cbr -e 1000 -c 1 -i 1 -a 1 -x {0.1 1073741824.0 1 ------- null}
h -t 0.5124 -s 2 -d 5 -p cbr -e 1000 -c 1 -i 1 -a 1 -x {0.1 1073741824.0 -1 ------- null}
- -t 0.5124 -s 1 -d 2 -p cbr -e 1000 -c 1 -i 2 -a 1 -x {0.1 1073741824.0 2 ------- null}
h -t 0.5124 -s 1 -d 2 -p cbr -e 1000 -c 1 -i 2 -a 1 -x {0.1 1073741824.0 -1 ------- null}
- -t 0.5124 -s 1 -d 3 -p cbr -e 1000 -c 1 -i 1 -a 1 -x {0.1 1073741824.0 1 ------- null}
h -t 0.5124 -s 1 -d 3 -p cbr -e 1000 -c 1 -i 1 -a 1 -x {0.1 1073741824.0 -1 ------- null}
- -t 0.5124 -s 1 -d 4 -p cbr -e 1000 -c 1 -i 1 -a 1 -x {0.1 1073741824.0 1 ------- null}
h -t 0.5124 -s 1 -d 4 -p cbr -e 1000 -c 1 -i 1 -a 1 -x {0.1 1073741824.0 -1 ------- null}
- -t 0.5124 -s 2 -d 0 -p cbr -e 1000 -c 2 -i 5 -a 2 -x {1.1 1073741825.0 2 ------- null}
h -t 0.5124 -s 2 -d 0 -p cbr -e 1000 -c 2 -i 5 -a 2 -x {1.1 1073741825.0 -1 ------- null}
- -t 0.5124 -s 3 -d 4 -p cbr -e 1000 -c 2 -i 5 -a 2 -x {1.1 1073741825.0 2 ------- null}
h -t 0.5124 -s 3 -d 4 -p cbr -e 1000 -c 2 -i 5 -a 2 -x {1.1 1073741825.0 -1 ------- null}
- -t 0.5124 -s 3 -d 6 -p cbr -e 1000 -c 2 -i 5 -a 2 -x {1.1 1073741825.0 2 ------- null}