+ 0.5 0 1 cbr 1000 ------- 1 0.1 1073741824.0 0 0
- 0.5 0 1 cbr 1000 ------- 1 0.1 1073741824.0 0 0
+ 0.5 0 1 cbr 1000 ------- 1 0.1 1073741824.0 1 1
+ 0.5 0 1 cbr 1000 ------- 1 0.1 1073741824.0 2 2
+ 0.5 1 4 cbr 1000 ------- 2 1.1 1073741825.0 0 3
- 0.5 1 4 cbr 1000 ------- 2 1.1 1073741825.0 0 3
+ 0.5 1 4 cbr 1000 ------- 2 1.1 1073741825.0 1 4
+ 0.5 1 4 cbr 1000 ------- 2 1.1 1073741825.0 2 5
+ 0.5 2 5 cbr 1000 ------- 3 2.1 1073741826.0 0 6
- 0.5 2 5 cbr 1000 ------- 3 2.1 1073741826.0 0 6
+ 0.5 2 5 cbr 1000 ------- 3 2.1 1073741826.0 1 7
+ 0.5 2 5 cbr 1000 ------- 3 2.1 1073741826.0 2 8
- 0.5008 0 1 cbr 1000 ------- 1 0.1 1073741824.0 1 1
- 0.5008 1 4 cbr 1000 ------- 2 1.1 1073741825.0 1 4
- 0.5008 2 5 cbr 1000 ------- 3 2.1 1073741826.0 1 7
- 0.5016 0 1 cbr 1000 ------- 1 0.1 1073741824.0 2 2
- 0.5016 1 4 cbr 1000 ------- 2 1.1 1073741825.0 2 5
- 0.5016 2 5 cbr 1000 ------- 3 2.1 1073741826.0 2 8
r 0.5108 0 1 cbr 1000 ------- 1 0.1 1073741824.0 0 0
+ 0.5108 1 3 cbr 1000 ------- 1 0.1 1073741824.0 0 0
- 0.5108 1 3 cbr 1000 ------- 1 0.1 1073741824.0 0 0
r 0.5108 1 4 cbr 1000 ------- 2 1.1 1073741825.0 0 3
r 0.5108 2 5 cbr 1000 ------- 3 2.1 1073741826.0 0 6
r 0.5116 0 1 cbr 1000 ------- 1 0.1 1073741824.0 1 1
+ 0.5116 1 3 cbr 1000 ------- 1 0.1 1073741824.0 1 1
r 0.5116 1 4 cbr 1000 ------- 2 1.1 1073741825.0 1 4
r 0.5116 2 5 cbr 1000 ------- 3 2.1 1073741826.0 1 7
- 0.5116 1 3 cbr 1000 ------- 1 0.1 1073741824.0 1 1
r 0.5124 0 1 cbr 1000 ------- 1 0.1 1073741824.0 2 2
+ 0.5124 1 3 cbr 1000 ------- 1 0.1 1073741824.0 2 2
r 0.5124 1 4 cbr 1000 ------- 2 1.1 1073741825.0 2 5
r 0.5124 2 5 cbr 1000 ------- 3 2.1 1073741826.0 2 8
- 0.5124 1 3 cbr 1000 ------- 1 0.1 1073741824.0 2 2
r 0.5216 1 3 cbr 1000 ------- 1 0.1 1073741824.0 0 0
r 0.5224 1 3 cbr 1000 ------- 1 0.1 1073741824.0 1 1
r 0.5232 1 3 cbr 1000 ------- 1 0.1 1073741824.0 2 2
+ 0.553571 0 1 cbr 1000 ------- 1 0.1 1073741824.0 3 9
- 0.553571 0 1 cbr 1000 ------- 1 0.1 1073741824.0 3 9
+ 0.553571 0 1 cbr 1000 ------- 1 0.1 1073741824.0 4 10
+ 0.553571 0 1 cbr 1000 ------- 1 0.1 1073741824.0 5 11
+ 0.553571 1 4 cbr 1000 ------- 2 1.1 1073741825.0 3 12
- 0.553571 1 4 cbr 1000 ------- 2 1.1 1073741825.0 3 12
+ 0.553571 1 4 cbr 1000 ------- 2 1.1 1073741825.0 4 13
+ 0.553571 1 4 cbr 1000 ------- 2 1.1 1073741825.0 5 14
+ 0.553571 2 5 cbr 1000 ------- 3 2.1 1073741826.0 3 15
- 0.553571 2 5 cbr 1000 ------- 3 2.1 1073741826.0 3 15
+ 0.553571 2 5 cbr 1000 ------- 3 2.1 1073741826.0 4 16
+ 0.553571 2 5 cbr 1000 ------- 3 2.1 1073741826.0 5 17
- 0.554371 0 1 cbr 1000 ------- 1 0.1 1073741824.0 4 10
- 0.554371 1 4 cbr 1000 ------- 2 1.1 1073741825.0 4 13
- 0.554371 2 5 cbr 1000 ------- 3 2.1 1073741826.0 4 16
- 0.555171 0 1 cbr 1000 ------- 1 0.1 1073741824.0 5 11
- 0.555171 1 4 cbr 1000 ------- 2 1.1 1073741825.0 5 14
- 0.555171 2 5 cbr 1000 ------- 3 2.1 1073741826.0 5 17
r 0.564371 0 1 cbr 1000 ------- 1 0.1 1073741824.0 3 9
+ 0.564371 1 3 cbr 1000 ------- 1 0.1 1073741824.0 3 9
- 0.564371 1 3 cbr 1000 ------- 1 0.1 1073741824.0 3 9
r 0.564371 1 4 cbr 1000 ------- 2 1.1 1073741825.0 3 12
r 0.564371 2 5 cbr 1000 ------- 3 2.1 1073741826.0 3 15
r 0.565171 0 1 cbr 1000 ------- 1 0.1 1073741824.0 4 10
+ 0.565171 1 3 cbr 1000 ------- 1 0.1 1073741824.0 4 10
r 0.565171 1 4 cbr 1000 ------- 2 1.1 1073741825.0 4 13
r 0.565171 2 5 cbr 1000 ------- 3 2.1 1073741826.0 4 16
- 0.565171 1 3 cbr 1000 ------- 1 0.1 1073741824.0 4 10
r 0.565971 0 1 cbr 1000 ------- 1 0.1 1073741824.0 5 11
+ 0.565971 1 3 cbr 1000 ------- 1 0.1 1073741824.0 5 11
r 0.565971 1 4 cbr 1000 ------- 2 1.1 1073741825.0 5 14
r 0.565971 2 5 cbr 1000 ------- 3 2.1 1073741826.0 5 17
- 0.565971 1 3 cbr 1000 ------- 1 0.1 1073741824.0 5 11
r 0.575171 1 3 cbr 1000 ------- 1 0.1 1073741824.0 3 9
r 0.575971 1 3 cbr 1000 ------- 1 0.1 1073741824.0 4 10
r 0.576771 1 3 cbr 1000 ------- 1 0.1 1073741824.0 5 11
+ 0.607143 0 1 cbr 1000 ------- 1 0.1 1073741824.0 6 18
- 0.607143 0 1 cbr 1000 ------- 1 0.1 1073741824.0 6 18
+ 0.607143 0 1 cbr 1000 ------- 1 0.1 1073741824.0 7 19
+ 0.607143 0 1 cbr 1000 ------- 1 0.1 1073741824.0 8 20
+ 0.607143 1 4 cbr 1000 ------- 2 1.1 1073741825.0 6 21
- 0.607143 1 4 cbr 1000 ------- 2 1.1 1073741825.0 6 21
+ 0.607143 1 4 cbr 1000 ------- 2 1.1 1073741825.0 7 22
+ 0.607143 1 4 cbr 1000 ------- 2 1.1 1073741825.0 8 23
+ 0.607143 2 5 cbr 1000 ------- 3 2.1 1073741826.0 6 24
- 0.607143 2 5 cbr 1000 ------- 3 2.1 1073741826.0 6 24
+ 0.607143 2 5 cbr 1000 ------- 3 2.1 1073741826.0 7 25
+ 0.607143 2 5 cbr 1000 ------- 3 2.1 1073741826.0 8 26
- 0.607943 0 1 cbr 1000 ------- 1 0.1 1073741824.0 7 19
- 0.607943 1 4 cbr 1000 ------- 2 1.1 1073741825.0 7 22
- 0.607943 2 5 cbr 1000 ------- 3 2.1 1073741826.0 7 25
- 0.608743 0 1 cbr 1000 ------- 1 0.1 1073741824.0 8 20
- 0.608743 1 4 cbr 1000 ------- 2 1.1 1073741825.0 8 23
- 0.608743 2 5 cbr 1000 ------- 3 2.1 1073741826.0 8 26
r 0.617943 0 1 cbr 1000 ------- 1 0.1 1073741824.0 6 18
+ 0.617943 1 3 cbr 1000 ------- 1 0.1 1073741824.0 6 18
- 0.617943 1 3 cbr 1000 ------- 1 0.1 1073741824.0 6 18
r 0.617943 1 4 cbr 1000 ------- 2 1.1 1073741825.0 6 21
r 0.617943 2 5 cbr 1000 ------- 3 2.1 1073741826.0 6 24
r 0.618743 0 1 cbr 1000 ------- 1 0.1 1073741824.0 7 19
+ 0.618743 1 3 cbr 1000 ------- 1 0.1 1073741824.0 7 19
r 0.618743 1 4 cbr 1000 ------- 2 1.1 1073741825.0 7 22
r 0.618743 2 5 cbr 1000 ------- 3 2.1 1073741826.0 7 25
- 0.618743 1 3 cbr 1000 ------- 1 0.1 1073741824.0 7 19
r 0.619543 0 1 cbr 1000 ------- 1 0.1 1073741824.0 8 20
+ 0.619543 1 3 cbr 1000 ------- 1 0.1 1073741824.0 8 20
r 0.619543 1 4 cbr 1000 ------- 2 1.1 1073741825.0 8 23
r 0.619543 2 5 cbr 1000 ------- 3 2.1 1073741826.0 8 26
- 0.619543 1 3 cbr 1000 ------- 1 0.1 1073741824.0 8 20
r 0.628743 1 3 cbr 1000 ------- 1 0.1 1073741824.0 6 18
r 0.629543 1 3 cbr 1000 ------- 1 0.1 1073741824.0 7 19
r 0.630343 1 3 cbr 1000 ------- 1 0.1 1073741824.0 8 20
+ 0.660714 0 1 cbr 1000 ------- 1 0.1 1073741824.0 9 27
- 0.660714 0 1 cbr 1000 ------- 1 0.1 1073741824.0 9 27
+ 0.660714 0 1 cbr 1000 ------- 1 0.1 1073741824.0 10 28
+ 0.660714 0 1 cbr 1000 ------- 1 0.1 1073741824.0 11 29
+ 0.660714 1 4 cbr 1000 ------- 2 1.1 1073741825.0 9 30
- 0.660714 1 4 cbr 1000 ------- 2 1.1 1073741825.0 9 30
+ 0.660714 1 4 cbr 1000 ------- 2 1.1 1073741825.0 10 31
+ 0.660714 1 4 cbr 1000 ------- 2 1.1 1073741825.0 11 32
+ 0.660714 2 5 cbr 1000 ------- 3 2.1 1073741826.0 9 33
- 0.660714 2 5 cbr 1000 ------- 3 2.1 1073741826.0 9 33
+ 0.660714 2 5 cbr 1000 ------- 3 2.1 1073741826.0 10 34
+ 0.660714 2 5 cbr 1000 ------- 3 2.1 1073741826.0 11 35
- 0.661514 0 1 cbr 1000 ------- 1 0.1 1073741824.0 10 28
- 0.661514 1 4 cbr 1000 ------- 2 1.1 1073741825.0 10 31
- 0.661514 2 5 cbr 1000 ------- 3 2.1 1073741826.0 10 34
- 0.662314 0 1 cbr 1000 ------- 1 0.1 1073741824.0 11 29
- 0.662314 1 4 cbr 1000 ------- 2 1.1 1073741825.0 11 32
- 0.662314 2 5 cbr 1000 ------- 3 2.1 1073741826.0 11 35
r 0.671514 0 1 cbr 1000 ------- 1 0.1 1073741824.0 9 27
+ 0.671514 1 3 cbr 1000 ------- 1 0.1 1073741824.0 9 27
- 0.671514 1 3 cbr 1000 ------- 1 0.1 1073741824.0 9 27
r 0.671514 1 4 cbr 1000 ------- 2 1.1 1073741825.0 9 30
r 0.671514 2 5 cbr 1000 ------- 3 2.1 1073741826.0 9 33
r 0.672314 0 1 cbr 1000 ------- 1 0.1 1073741824.0 10 28
+ 0.672314 1 3 cbr 1000 ------- 1 0.1 1073741824.0 10 28
r 0.672314 1 4 cbr 1000 ------- 2 1.1 1073741825.0 10 31
r 0.672314 2 5 cbr 1000 ------- 3 2.1 1073741826.0 10 34
- 0.672314 1 3 cbr 1000 ------- 1 0.1 1073741824.0 10 28
r 0.673114 0 1 cbr 1000 ------- 1 0.1 1073741824.0 11 29
+ 0.673114 1 3 cbr 1000 ------- 1 0.1 1073741824.0 11 29
r 0.673114 1 4 cbr 1000 ------- 2 1.1 1073741825.0 11 32
r 0.673114 2 5 cbr 1000 ------- 3 2.1 1073741826.0 11 35
- 0.673114 1 3 cbr 1000 ------- 1 0.1 1073741824.0 11 29
r 0.682314 1 3 cbr 1000 ------- 1 0.1 1073741824.0 9 27
r 0.683114 1 3 cbr 1000 ------- 1 0.1 1073741824.0 10 28
r 0.683914 1 3 cbr 1000 ------- 1 0.1 1073741824.0 11 29
+ 0.714286 0 1 cbr 1000 ------- 1 0.1 1073741824.0 12 36
- 0.714286 0 1 cbr 1000 ------- 1 0.1 1073741824.0 12 36
+ 0.714286 0 1 cbr 1000 ------- 1 0.1 1073741824.0 13 37
+ 0.714286 0 1 cbr 1000 ------- 1 0.1 1073741824.0 14 38
+ 0.714286 1 4 cbr 1000 ------- 2 1.1 1073741825.0 12 39
- 0.714286 1 4 cbr 1000 ------- 2 1.1 1073741825.0 12 39
+ 0.714286 1 4 cbr 1000 ------- 2 1.1 1073741825.0 13 40
+ 0.714286 1 4 cbr 1000 ------- 2 1.1 1073741825.0 14 41
+ 0.714286 2 5 cbr 1000 ------- 3 2.1 1073741826.0 12 42
- 0.714286 2 5 cbr 1000 ------- 3 2.1 1073741826.0 12 42
+ 0.714286 2 5 cbr 1000 ------- 3 2.1 1073741826.0 13 43
+ 0.714286 2 5 cbr 1000 ------- 3 2.1 1073741826.0 14 44
- 0.715086 0 1 cbr 1000 ------- 1 0.1 1073741824.0 13 37
- 0.715086 1 4 cbr 1000 ------- 2 1.1 1073741825.0 13 40
- 0.715086 2 5 cbr 1000 ------- 3 2.1 1073741826.0 13 43
- 0.715886 0 1 cbr 1000 ------- 1 0.1 1073741824.0 14 38
- 0.715886 1 4 cbr 1000 ------- 2 1.1 1073741825.0 14 41
- 0.715886 2 5 cbr 1000 ------- 3 2.1 1073741826.0 14 44
r 0.725086 0 1 cbr 1000 ------- 1 0.1 1073741824.0 12 36
+ 0.725086 1 3 cbr 1000 ------- 1 0.1 1073741824.0 12 36
- 0.725086 1 3 cbr 1000 ------- 1 0.1 1073741824.0 12 36
r 0.725086 1 4 cbr 1000 ------- 2 1.1 1073741825.0 12 39
r 0.725086 2 5 cbr 1000 ------- 3 2.1 1073741826.0 12 42
r 0.725886 0 1 cbr 1000 ------- 1 0.1 1073741824.0 13 37
+ 0.725886 1 3 cbr 1000 ------- 1 0.1 1073741824.0 13 37
r 0.725886 1 4 cbr 1000 ------- 2 1.1 1073741825.0 13 40
r 0.725886 2 5 cbr 1000 ------- 3 2.1 1073741826.0 13 43
- 0.725886 1 3 cbr 1000 ------- 1 0.1 1073741824.0 13 37
r 0.726686 0 1 cbr 1000 ------- 1 0.1 1073741824.0 14 38
+ 0.726686 1 3 cbr 1000 ------- 1 0.1 1073741824.0 14 38
r 0.726686 1 4 cbr 1000 ------- 2 1.1 1073741825.0 14 41
r 0.726686 2 5 cbr 1000 ------- 3 2.1 1073741826.0 14 44
- 0.726686 1 3 cbr 1000 ------- 1 0.1 1073741824.0 14 38
r 0.735886 1 3 cbr 1000 ------- 1 0.1 1073741824.0 12 36
r 0.736686 1 3 cbr 1000 ------- 1 0.1 1073741824.0 13 37
r 0.737486 1 3 cbr 1000 ------- 1 0.1 1073741824.0 14 38
+ 0.767857 0 1 cbr 1000 ------- 1 0.1 1073741824.0 15 45
- 0.767857 0 1 cbr 1000 ------- 1 0.1 1073741824.0 15 45
+ 0.767857 0 1 cbr 1000 ------- 1 0.1 1073741824.0 16 46
+ 0.767857 0 1 cbr 1000 ------- 1 0.1 1073741824.0 17 47
+ 0.767857 1 4 cbr 1000 ------- 2 1.1 1073741825.0 15 48
- 0.767857 1 4 cbr 1000 ------- 2 1.1 1073741825.0 15 48
+ 0.767857 1 4 cbr 1000 ------- 2 1.1 1073741825.0 16 49
+ 0.767857 1 4 cbr 1000 ------- 2 1.1 1073741825.0 17 50
+ 0.767857 2 5 cbr 1000 ------- 3 2.1 1073741826.0 15 51
- 0.767857 2 5 cbr 1000 ------- 3 2.1 1073741826.0 15 51
+ 0.767857 2 5 cbr 1000 ------- 3 2.1 1073741826.0 16 52
+ 0.767857 2 5 cbr 1000 ------- 3 2.1 1073741826.0 17 53
- 0.768657 0 1 cbr 1000 ------- 1 0.1 1073741824.0 16 46
- 0.768657 1 4 cbr 1000 ------- 2 1.1 1073741825.0 16 49
- 0.768657 2 5 cbr 1000 ------- 3 2.1 1073741826.0 16 52
- 0.769457 0 1 cbr 1000 ------- 1 0.1 1073741824.0 17 47
- 0.769457 1 4 cbr 1000 ------- 2 1.1 1073741825.0 17 50
- 0.769457 2 5 cbr 1000 ------- 3 2.1 1073741826.0 17 53
r 0.778657 0 1 cbr 1000 ------- 1 0.1 1073741824.0 15 45
+ 0.778657 1 3 cbr 1000 ------- 1 0.1 1073741824.0 15 45
- 0.778657 1 3 cbr 1000 ------- 1 0.1 1073741824.0 15 45
r 0.778657 1 4 cbr 1000 ------- 2 1.1 1073741825.0 15 48
r 0.778657 2 5 cbr 1000 ------- 3 2.1 1073741826.0 15 51
r 0.779457 0 1 cbr 1000 ------- 1 0.1 1073741824.0 16 46
+ 0.779457 1 3 cbr 1000 ------- 1 0.1 1073741824.0 16 46
r 0.779457 1 4 cbr 1000 ------- 2 1.1 1073741825.0 16 49
r 0.779457 2 5 cbr 1000 ------- 3 2.1 1073741826.0 16 52
- 0.779457 1 3 cbr 1000 ------- 1 0.1 1073741824.0 16 46
r 0.780257 0 1 cbr 1000 ------- 1 0.1 1073741824.0 17 47
+ 0.780257 1 3 cbr 1000 ------- 1 0.1 1073741824.0 17 47
r 0.780257 1 4 cbr 1000 ------- 2 1.1 1073741825.0 17 50
r 0.780257 2 5 cbr 1000 ------- 3 2.1 1073741826.0 17 53
- 0.780257 1 3 cbr 1000 ------- 1 0.1 1073741824.0 17 47
r 0.789457 1 3 cbr 1000 ------- 1 0.1 1073741824.0 15 45
r 0.790257 1 3 cbr 1000 ------- 1 0.1 1073741824.0 16 46
r 0.791057 1 3 cbr 1000 ------- 1 0.1 1073741824.0 17 47
+ 0.821429 0 1 cbr 1000 ------- 1 0.1 1073741824.0 18 54
- 0.821429 0 1 cbr 1000 ------- 1 0.1 1073741824.0 18 54
+ 0.821429 0 1 cbr 1000 ------- 1 0.1 1073741824.0 19 55
+ 0.821429 0 1 cbr 1000 ------- 1 0.1 1073741824.0 20 56
+ 0.821429 1 4 cbr 1000 ------- 2 1.1 1073741825.0 18 57
- 0.821429 1 4 cbr 1000 ------- 2 1.1 1073741825.0 18 57
+ 0.821429 1 4 cbr 1000 ------- 2 1.1 1073741825.0 19 58
+ 0.821429 1 4 cbr 1000 ------- 2 1.1 1073741825.0 20 59
+ 0.821429 2 5 cbr 1000 ------- 3 2.1 1073741826.0 18 60
- 0.821429 2 5 cbr 1000 ------- 3 2.1 1073741826.0 18 60
+ 0.821429 2 5 cbr 1000 ------- 3 2.1 1073741826.0 19 61
+ 0.821429 2 5 cbr 1000 ------- 3 2.1 1073741826.0 20 62
- 0.822229 0 1 cbr 1000 ------- 1 0.1 1073741824.0 19 55
- 0.822229 1 4 cbr 1000 ------- 2 1.1 1073741825.0 19 58
- 0.822229 2 5 cbr 1000 ------- 3 2.1 1073741826.0 19 61
- 0.823029 0 1 cbr 1000 ------- 1 0.1 1073741824.0 20 56
- 0.823029 1 4 cbr 1000 ------- 2 1.1 1073741825.0 20 59
- 0.823029 2 5 cbr 1000 ------- 3 2.1 1073741826.0 20 62
r 0.832229 0 1 cbr 1000 ------- 1 0.1 1073741824.0 18 54
+ 0.832229 1 3 cbr 1000 ------- 1 0.1 1073741824.0 18 54
- 0.832229 1 3 cbr 1000 ------- 1 0.1 1073741824.0 18 54
r 0.832229 1 4 cbr 1000 ------- 2 1.1 1073741825.0 18 57
r 0.832229 2 5 cbr 1000 ------- 3 2.1 1073741826.0 18 60
r 0.833029 0 1 cbr 1000 ------- 1 0.1 1073741824.0 19 55
+ 0.833029 1 3 cbr 1000 ------- 1 0.1 1073741824.0 19 55
r 0.833029 1 4 cbr 1000 ------- 2 1.1 1073741825.0 19 58
r 0.833029 2 5 cbr 1000 ------- 3 2.1 1073741826.0 19 61
- 0.833029 1 3 cbr 1000 ------- 1 0.1 1073741824.0 19 55
r 0.833829 0 1 cbr 1000 ------- 1 0.1 1073741824.0 20 56
+ 0.833829 1 3 cbr 1000 ------- 1 0.1 1073741824.0 20 56
r 0.833829 1 4 cbr 1000 ------- 2 1.1 1073741825.0 20 59
r 0.833829 2 5 cbr 1000 ------- 3 2.1 1073741826.0 20 62
- 0.833829 1 3 cbr 1000 ------- 1 0.1 1073741824.0 20 56
r 0.843029 1 3 cbr 1000 ------- 1 0.1 1073741824.0 18 54
r 0.843829 1 3 cbr 1000 ------- 1 0.1 1073741824.0 19 55
r 0.844629 1 3 cbr 1000 ------- 1 0.1 1073741824.0 20 56
+ 0.875 0 1 cbr 1000 ------- 1 0.1 1073741824.0 21 63
- 0.875 0 1 cbr 1000 ------- 1 0.1 1073741824.0 21 63
+ 0.875 0 1 cbr 1000 ------- 1 0.1 1073741824.0 22 64
+ 0.875 0 1 cbr 1000 ------- 1 0.1 1073741824.0 23 65
+ 0.875 1 4 cbr 1000 ------- 2 1.1 1073741825.0 21 66
- 0.875 1 4 cbr 1000 ------- 2 1.1 1073741825.0 21 66
+ 0.875 1 4 cbr 1000 ------- 2 1.1 1073741825.0 22 67
+ 0.875 1 4 cbr 1000 ------- 2 1.1 1073741825.0 23 68
+ 0.875 2 5 cbr 1000 ------- 3 2.1 1073741826.0 21 69
- 0.875 2 5 cbr 1000 ------- 3 2.1 1073741826.0 21 69
+ 0.875 2 5 cbr 1000 ------- 3 2.1 1073741826.0 22 70
+ 0.875 2 5 cbr 1000 ------- 3 2.1 1073741826.0 23 71
- 0.8758 0 1 cbr 1000 ------- 1 0.1 1073741824.0 22 64
- 0.8758 1 4 cbr 1000 ------- 2 1.1 1073741825.0 22 67
- 0.8758 2 5 cbr 1000 ------- 3 2.1 1073741826.0 22 70
- 0.8766 0 1 cbr 1000 ------- 1 0.1 1073741824.0 23 65
- 0.8766 1 4 cbr 1000 ------- 2 1.1 1073741825.0 23 68
- 0.8766 2 5 cbr 1000 ------- 3 2.1 1073741826.0 23 71
r 0.8858 0 1 cbr 1000 ------- 1 0.1 1073741824.0 21 63
+ 0.8858 1 3 cbr 1000 ------- 1 0.1 1073741824.0 21 63
- 0.8858 1 3 cbr 1000 ------- 1 0.1 1073741824.0 21 63
r 0.8858 1 4 cbr 1000 ------- 2 1.1 1073741825.0 21 66
r 0.8858 2 5 cbr 1000 ------- 3 2.1 1073741826.0 21 69
r 0.8866 0 1 cbr 1000 ------- 1 0.1 1073741824.0 22 64
+ 0.8866 1 3 cbr 1000 ------- 1 0.1 1073741824.0 22 64
r 0.8866 1 4 cbr 1000 ------- 2 1.1 1073741825.0 22 67
r 0.8866 2 5 cbr 1000 ------- 3 2.1 1073741826.0 22 70
- 0.8866 1 3 cbr 1000 ------- 1 0.1 1073741824.0 22 64
r 0.8874 0 1 cbr 1000 ------- 1 0.1 1073741824.0 23 65
+ 0.8874 1 3 cbr 1000 ------- 1 0.1 1073741824.0 23 65
r 0.8874 1 4 cbr 1000 ------- 2 1.1 1073741825.0 23 68
r 0.8874 2 5 cbr 1000 ------- 3 2.1 1073741826.0 23 71
- 0.8874 1 3 cbr 1000 ------- 1 0.1 1073741824.0 23 65
r 0.8966 1 3 cbr 1000 ------- 1 0.1 1073741824.0 21 63
r 0.8974 1 3 cbr 1000 ------- 1 0.1 1073741824.0 22 64
r 0.8982 1 3 cbr 1000 ------- 1 0.1 1073741824.0 23 65
+ 0.928571 0 1 cbr 1000 ------- 1 0.1 1073741824.0 24 72
- 0.928571 0 1 cbr 1000 ------- 1 0.1 1073741824.0 24 72
+ 0.928571 0 1 cbr 1000 ------- 1 0.1 1073741824.0 25 73
+ 0.928571 0 1 cbr 1000 ------- 1 0.1 1073741824.0 26 74
+ 0.928571 1 4 cbr 1000 ------- 2 1.1 1073741825.0 24 75
- 0.928571 1 4 cbr 1000 ------- 2 1.1 1073741825.0 24 75
+ 0.928571 1 4 cbr 1000 ------- 2 1.1 1073741825.0 25 76
+ 0.928571 1 4 cbr 1000 ------- 2 1.1 1073741825.0 26 77
+ 0.928571 2 5 cbr 1000 ------- 3 2.1 1073741826.0 24 78
- 0.928571 2 5 cbr 1000 ------- 3 2.1 1073741826.0 24 78
+ 0.928571 2 5 cbr 1000 ------- 3 2.1 1073741826.0 25 79
+ 0.928571 2 5 cbr 1000 ------- 3 2.1 1073741826.0 26 80
- 0.929371 0 1 cbr 1000 ------- 1 0.1 1073741824.0 25 73
- 0.929371 1 4 cbr 1000 ------- 2 1.1 1073741825.0 25 76
- 0.929371 2 5 cbr 1000 ------- 3 2.1 1073741826.0 25 79
- 0.930171 0 1 cbr 1000 ------- 1 0.1 1073741824.0 26 74
- 0.930171 1 4 cbr 1000 ------- 2 1.1 1073741825.0 26 77
- 0.930171 2 5 cbr 1000 ------- 3 2.1 1073741826.0 26 80
r 0.939371 0 1 cbr 1000 ------- 1 0.1 1073741824.0 24 72
+ 0.939371 1 3 cbr 1000 ------- 1 0.1 1073741824.0 24 72
- 0.939371 1 3 cbr 1000 ------- 1 0.1 1073741824.0 24 72
r 0.939371 1 4 cbr 1000 ------- 2 1.1 1073741825.0 24 75
r 0.939371 2 5 cbr 1000 ------- 3 2.1 1073741826.0 24 78
r 0.940171 0 1 cbr 1000 ------- 1 0.1 1073741824.0 25 73
+ 0.940171 1 3 cbr 1000 ------- 1 0.1 1073741824.0 25 73
r 0.940171 1 4 cbr 1000 ------- 2 1.1 1073741825.0 25 76
r 0.940171 2 5 cbr 1000 ------- 3 2.1 1073741826.0 25 79
- 0.940171 1 3 cbr 1000 ------- 1 0.1 1073741824.0 25 73
r 0.940971 0 1 cbr 1000 ------- 1 0.1 1073741824.0 26 74
+ 0.940971 1 3 cbr 1000 ------- 1 0.1 1073741824.0 26 74
r 0.940971 1 4 cbr 1000 ------- 2 1.1 1073741825.0 26 77
r 0.940971 2 5 cbr 1000 ------- 3 2.1 1073741826.0 26 80
- 0.940971 1 3 cbr 1000 ------- 1 0.1 1073741824.0 26 74
r 0.950171 1 3 cbr 1000 ------- 1 0.1 1073741824.0 24 72
r 0.950971 1 3 cbr 1000 ------- 1 0.1 1073741824.0 25 73
r 0.951771 1 3 cbr 1000 ------- 1 0.1 1073741824.0 26 74
+ 0.982143 0 1 cbr 1000 ------- 1 0.1 1073741824.0 27 81
- 0.982143 0 1 cbr 1000 ------- 1 0.1 1073741824.0 27 81
+ 0.982143 0 1 cbr 1000 ------- 1 0.1 1073741824.0 28 82
+ 0.982143 0 1 cbr 1000 ------- 1 0.1 1073741824.0 29 83
+ 0.982143 1 4 cbr 1000 ------- 2 1.1 1073741825.0 27 84
- 0.982143 1 4 cbr 1000 ------- 2 1.1 1073741825.0 27 84
+ 0.982143 1 4 cbr 1000 ------- 2 1.1 1073741825.0 28 85
+ 0.982143 1 4 cbr 1000 ------- 2 1.1 1073741825.0 29 86
+ 0.982143 2 5 cbr 1000 ------- 3 2.1 1073741826.0 27 87
- 0.982143 2 5 cbr 1000 ------- 3 2.1 1073741826.0 27 87
+ 0.982143 2 5 cbr 1000 ------- 3 2.1 1073741826.0 28 88
+ 0.982143 2 5 cbr 1000 ------- 3 2.1 1073741826.0 29 89
- 0.982943 0 1 cbr 1000 ------- 1 0.1 1073741824.0 28 82
- 0.982943 1 4 cbr 1000 ------- 2 1.1 1073741825.0 28 85
- 0.982943 2 5 cbr 1000 ------- 3 2.1 1073741826.0 28 88
- 0.983743 0 1 cbr 1000 ------- 1 0.1 1073741824.0 29 83
- 0.983743 1 4 cbr 1000 ------- 2 1.1 1073741825.0 29 86
- 0.983743 2 5 cbr 1000 ------- 3 2.1 1073741826.0 29 89
r 0.992943 0 1 cbr 1000 ------- 1 0.1 1073741824.0 27 81
+ 0.992943 1 3 cbr 1000 ------- 1 0.1 1073741824.0 27 81
- 0.992943 1 3 cbr 1000 ------- 1 0.1 1073741824.0 27 81
r 0.992943 1 4 cbr 1000 ------- 2 1.1 1073741825.0 27 84
r 0.992943 2 5 cbr 1000 ------- 3 2.1 1073741826.0 27 87
r 0.993743 0 1 cbr 1000 ------- 1 0.1 1073741824.0 28 82
+ 0.993743 1 3 cbr 1000 ------- 1 0.1 1073741824.0 28 82
r 0.993743 1 4 cbr 1000 ------- 2 1.1 1073741825.0 28 85
r 0.993743 2 5 cbr 1000 ------- 3 2.1 1073741826.0 28 88
- 0.993743 1 3 cbr 1000 ------- 1 0.1 1073741824.0 28 82
r 0.994543 0 1 cbr 1000 ------- 1 0.1 1073741824.0 29 83
+ 0.994543 1 3 cbr 1000 ------- 1 0.1 1073741824.0 29 83
r 0.994543 1 4 cbr 1000 ------- 2 1.1 1073741825.0 29 86
r 0.994543 2 5 cbr 1000 ------- 3 2.1 1073741826.0 29 89
- 0.994543 1 3 cbr 1000 ------- 1 0.1 1073741824.0 29 83
v 1 eval {set sim_annotation {1 3 join-group 1073741825}}
+ 1 3 4 graft 80 ------- 3 3.0 4.0 -1 90
- 1 3 4 graft 80 ------- 3 3.0 4.0 -1 90
r 1.003743 1 3 cbr 1000 ------- 1 0.1 1073741824.0 27 81
r 1.004543 1 3 cbr 1000 ------- 1 0.1 1073741824.0 28 82
r 1.005343 1 3 cbr 1000 ------- 1 0.1 1073741824.0 29 83
r 1.010064 3 4 graft 80 ------- 3 3.0 4.0 -1 90
+ 1.035714 0 1 cbr 1000 ------- 1 0.1 1073741824.0 30 91
- 1.035714 0 1 cbr 1000 ------- 1 0.1 1073741824.0 30 91
+ 1.035714 0 1 cbr 1000 ------- 1 0.1 1073741824.0 31 92
+ 1.035714 0 1 cbr 1000 ------- 1 0.1 1073741824.0 32 93
+ 1.035714 1 4 cbr 1000 ------- 2 1.1 1073741825.0 30 94
- 1.035714 1 4 cbr 1000 ------- 2 1.1 1073741825.0 30 94
+ 1.035714 1 4 cbr 1000 ------- 2 1.1 1073741825.0 31 95
+ 1.035714 1 4 cbr 1000 ------- 2 1.1 1073741825.0 32 96
+ 1.035714 2 5 cbr 1000 ------- 3 2.1 1073741826.0 30 97
- 1.035714 2 5 cbr 1000 ------- 3 2.1 1073741826.0 30 97
+ 1.035714 2 5 cbr 1000 ------- 3 2.1 1073741826.0 31 98
+ 1.035714 2 5 cbr 1000 ------- 3 2.1 1073741826.0 32 99
- 1.036514 0 1 cbr 1000 ------- 1 0.1 1073741824.0 31 92
- 1.036514 1 4 cbr 1000 ------- 2 1.1 1073741825.0 31 95
- 1.036514 2 5 cbr 1000 ------- 3 2.1 1073741826.0 31 98
- 1.037314 0 1 cbr 1000 ------- 1 0.1 1073741824.0 32 93
- 1.037314 1 4 cbr 1000 ------- 2 1.1 1073741825.0 32 96
- 1.037314 2 5 cbr 1000 ------- 3 2.1 1073741826.0 32 99
r 1.046514 0 1 cbr 1000 ------- 1 0.1 1073741824.0 30 91
+ 1.046514 1 3 cbr 1000 ------- 1 0.1 1073741824.0 30 91
- 1.046514 1 3 cbr 1000 ------- 1 0.1 1073741824.0 30 91
r 1.046514 1 4 cbr 1000 ------- 2 1.1 1073741825.0 30 94
+ 1.046514 4 3 cbr 1000 ------- 2 1.1 1073741825.0 30 94
- 1.046514 4 3 cbr 1000 ------- 2 1.1 1073741825.0 30 94
r 1.046514 2 5 cbr 1000 ------- 3 2.1 1073741826.0 30 97
r 1.047314 0 1 cbr 1000 ------- 1 0.1 1073741824.0 31 92
+ 1.047314 1 3 cbr 1000 ------- 1 0.1 1073741824.0 31 92
r 1.047314 1 4 cbr 1000 ------- 2 1.1 1073741825.0 31 95
+ 1.047314 4 3 cbr 1000 ------- 2 1.1 1073741825.0 31 95
r 1.047314 2 5 cbr 1000 ------- 3 2.1 1073741826.0 31 98
- 1.047314 1 3 cbr 1000 ------- 1 0.1 1073741824.0 31 92
- 1.047314 4 3 cbr 1000 ------- 2 1.1 1073741825.0 31 95
r 1.048114 0 1 cbr 1000 ------- 1 0.1 1073741824.0 32 93
+ 1.048114 1 3 cbr 1000 ------- 1 0.1 1073741824.0 32 93
r 1.048114 1 4 cbr 1000 ------- 2 1.1 1073741825.0 32 96
+ 1.048114 4 3 cbr 1000 ------- 2 1.1 1073741825.0 32 96
r 1.048114 2 5 cbr 1000 ------- 3 2.1 1073741826.0 32 99
- 1.048114 1 3 cbr 1000 ------- 1 0.1 1073741824.0 32 93
- 1.048114 4 3 cbr 1000 ------- 2 1.1 1073741825.0 32 96
r 1.057314 1 3 cbr 1000 ------- 1 0.1 1073741824.0 30 91
r 1.057314 4 3 cbr 1000 ------- 2 1.1 1073741825.0 30 94
r 1.058114 1 3 cbr 1000 ------- 1 0.1 1073741824.0 31 92
r 1.058114 4 3 cbr 1000 ------- 2 1.1 1073741825.0 31 95
r 1.058914 1 3 cbr 1000 ------- 1 0.1 1073741824.0 32 93
r 1.058914 4 3 cbr 1000 ------- 2 1.1 1073741825.0 32 96
+ 1.089286 0 1 cbr 1000 ------- 1 0.1 1073741824.0 33 100
- 1.089286 0 1 cbr 1000 ------- 1 0.1 1073741824.0 33 100
+ 1.089286 0 1 cbr 1000 ------- 1 0.1 1073741824.0 34 101
+ 1.089286 0 1 cbr 1000 ------- 1 0.1 1073741824.0 35 102
+ 1.089286 1 4 cbr 1000 ------- 2 1.1 1073741825.0 33 103
- 1.089286 1 4 cbr 1000 ------- 2 1.1 1073741825.0 33 103
+ 1.089286 1 4 cbr 1000 ------- 2 1.1 1073741825.0 34 104
+ 1.089286 1 4 cbr 1000 ------- 2 1.1 1073741825.0 35 105
+ 1.089286 2 5 cbr 1000 ------- 3 2.1 1073741826.0 33 106
- 1.089286 2 5 cbr 1000 ------- 3 2.1 1073741826.0 33 106
+ 1.089286 2 5 cbr 1000 ------- 3 2.1 1073741826.0 34 107
+ 1.089286 2 5 cbr 1000 ------- 3 2.1 1073741826.0 35 108
- 1.090086 0 1 cbr 1000 ------- 1 0.1 1073741824.0 34 101
- 1.090086 1 4 cbr 1000 ------- 2 1.1 1073741825.0 34 104
- 1.090086 2 5 cbr 1000 ------- 3 2.1 1073741826.0 34 107
- 1.090886 0 1 cbr 1000 ------- 1 0.1 1073741824.0 35 102
- 1.090886 1 4 cbr 1000 ------- 2 1.1 1073741825.0 35 105
- 1.090886 2 5 cbr 1000 ------- 3 2.1 1073741826.0 35 108
r 1.100086 0 1 cbr 1000 ------- 1 0.1 1073741824.0 33 100
+ 1.100086 1 3 cbr 1000 ------- 1 0.1 1073741824.0 33 100
- 1.100086 1 3 cbr 1000 ------- 1 0.1 1073741824.0 33 100
r 1.100086 1 4 cbr 1000 ------- 2 1.1 1073741825.0 33 103
+ 1.100086 4 3 cbr 1000 ------- 2 1.1 1073741825.0 33 103
- 1.100086 4 3 cbr 1000 ------- 2 1.1 1073741825.0 33 103
r 1.100086 2 5 cbr 1000 ------- 3 2.1 1073741826.0 33 106
r 1.100886 0 1 cbr 1000 ------- 1 0.1 1073741824.0 34 101
+ 1.100886 1 3 cbr 1000 ------- 1 0.1 1073741824.0 34 101
r 1.100886 1 4 cbr 1000 ------- 2 1.1 1073741825.0 34 104
+ 1.100886 4 3 cbr 1000 ------- 2 1.1 1073741825.0 34 104
r 1.100886 2 5 cbr 1000 ------- 3 2.1 1073741826.0 34 107
- 1.100886 1 3 cbr 1000 ------- 1 0.1 1073741824.0 34 101
- 1.100886 4 3 cbr 1000 ------- 2 1.1 1073741825.0 34 104
r 1.101686 0 1 cbr 1000 ------- 1 0.1 1073741824.0 35 102
+ 1.101686 1 3 cbr 1000 ------- 1 0.1 1073741824.0 35 102
r 1.101686 1 4 cbr 1000 ------- 2 1.1 1073741825.0 35 105
+ 1.101686 4 3 cbr 1000 ------- 2 1.1 1073741825.0 35 105
r 1.101686 2 5 cbr 1000 ------- 3 2.1 1073741826.0 35 108
- 1.101686 1 3 cbr 1000 ------- 1 0.1 1073741824.0 35 102
- 1.101686 4 3 cbr 1000 ------- 2 1.1 1073741825.0 35 105
r 1.110886 1 3 cbr 1000 ------- 1 0.1 1073741824.0 33 100
r 1.110886 4 3 cbr 1000 ------- 2 1.1 1073741825.0 33 103
r 1.111686 1 3 cbr 1000 ------- 1 0.1 1073741824.0 34 101
r 1.111686 4 3 cbr 1000 ------- 2 1.1 1073741825.0 34 104
r 1.112486 1 3 cbr 1000 ------- 1 0.1 1073741824.0 35 102
r 1.112486 4 3 cbr 1000 ------- 2 1.1 1073741825.0 35 105
+ 1.142857 0 1 cbr 1000 ------- 1 0.1 1073741824.0 36 109
- 1.142857 0 1 cbr 1000 ------- 1 0.1 1073741824.0 36 109
+ 1.142857 0 1 cbr 1000 ------- 1 0.1 1073741824.0 37 110
+ 1.142857 0 1 cbr 1000 ------- 1 0.1 1073741824.0 38 111
+ 1.142857 1 4 cbr 1000 ------- 2 1.1 1073741825.0 36 112
- 1.142857 1 4 cbr 1000 ------- 2 1.1 1073741825.0 36 112
+ 1.142857 1 4 cbr 1000 ------- 2 1.1 1073741825.0 37 113
+ 1.142857 1 4 cbr 1000 ------- 2 1.1 1073741825.0 38 114
+ 1.142857 2 5 cbr 1000 ------- 3 2.1 1073741826.0 36 115
- 1.142857 2 5 cbr 1000 ------- 3 2.1 1073741826.0 36 115
+ 1.142857 2 5 cbr 1000 ------- 3 2.1 1073741826.0 37 116
+ 1.142857 2 5 cbr 1000 ------- 3 2.1 1073741826.0 38 117
- 1.143657 0 1 cbr 1000 ------- 1 0.1 1073741824.0 37 110
- 1.143657 1 4 cbr 1000 ------- 2 1.1 1073741825.0 37 113
- 1.143657 2 5 cbr 1000 ------- 3 2.1 1073741826.0 37 116
- 1.144457 0 1 cbr 1000 ------- 1 0.1 1073741824.0 38 111
- 1.144457 1 4 cbr 1000 ------- 2 1.1 1073741825.0 38 114
- 1.144457 2 5 cbr 1000 ------- 3 2.1 1073741826.0 38 117
r 1.153657 0 1 cbr 1000 ------- 1 0.1 1073741824.0 36 109
+ 1.153657 1 3 cbr 1000 ------- 1 0.1 1073741824.0 36 109
- 1.153657 1 3 cbr 1000 ------- 1 0.1 1073741824.0 36 109
r 1.153657 1 4 cbr 1000 ------- 2 1.1 1073741825.0 36 112
+ 1.153657 4 3 cbr 1000 ------- 2 1.1 1073741825.0 36 112
- 1.153657 4 3 cbr 1000 ------- 2 1.1 1073741825.0 36 112
r 1.153657 2 5 cbr 1000 ------- 3 2.1 1073741826.0 36 115
r 1.154457 0 1 cbr 1000 ------- 1 0.1 1073741824.0 37 110
+ 1.154457 1 3 cbr 1000 ------- 1 0.1 1073741824.0 37 110
r 1.154457 1 4 cbr 1000 ------- 2 1.1 1073741825.0 37 113
+ 1.154457 4 3 cbr 1000 ------- 2 1.1 1073741825.0 37 113
r 1.154457 2 5 cbr 1000 ------- 3 2.1 1073741826.0 37 116
- 1.154457 1 3 cbr 1000 ------- 1 0.1 1073741824.0 37 110
- 1.154457 4 3 cbr 1000 ------- 2 1.1 1073741825.0 37 113
r 1.155257 0 1 cbr 1000 ------- 1 0.1 1073741824.0 38 111
+ 1.155257 1 3 cbr 1000 ------- 1 0.1 1073741824.0 38 111
r 1.155257 1 4 cbr 1000 ------- 2 1.1 1073741825.0 38 114
+ 1.155257 4 3 cbr 1000 ------- 2 1.1 1073741825.0 38 114
r 1.155257 2 5 cbr 1000 ------- 3 2.1 1073741826.0 38 117
- 1.155257 1 3 cbr 1000 ------- 1 0.1 1073741824.0 38 111
- 1.155257 4 3 cbr 1000 ------- 2 1.1 1073741825.0 38 114
r 1.164457 1 3 cbr 1000 ------- 1 0.1 1073741824.0 36 109
r 1.164457 4 3 cbr 1000 ------- 2 1.1 1073741825.0 36 112
r 1.165257 1 3 cbr 1000 ------- 1 0.1 1073741824.0 37 110
r 1.165257 4 3 cbr 1000 ------- 2 1.1 1073741825.0 37 113
r 1.166057 1 3 cbr 1000 ------- 1 0.1 1073741824.0 38 111
r 1.166057 4 3 cbr 1000 ------- 2 1.1 1073741825.0 38 114
+ 1.196429 0 1 cbr 1000 ------- 1 0.1 1073741824.0 39 118
- 1.196429 0 1 cbr 1000 ------- 1 0.1 1073741824.0 39 118
+ 1.196429 0 1 cbr 1000 ------- 1 0.1 1073741824.0 40 119
+ 1.196429 0 1 cbr 1000 ------- 1 0.1 1073741824.0 41 120
+ 1.196429 1 4 cbr 1000 ------- 2 1.1 1073741825.0 39 121
- 1.196429 1 4 cbr 1000 ------- 2 1.1 1073741825.0 39 121
+ 1.196429 1 4 cbr 1000 ------- 2 1.1 1073741825.0 40 122
+ 1.196429 1 4 cbr 1000 ------- 2 1.1 1073741825.0 41 123
+ 1.196429 2 5 cbr 1000 ------- 3 2.1 1073741826.0 39 124
- 1.196429 2 5 cbr 1000 ------- 3 2.1 1073741826.0 39 124
+ 1.196429 2 5 cbr 1000 ------- 3 2.1 1073741826.0 40 125
+ 1.196429 2 5 cbr 1000 ------- 3 2.1 1073741826.0 41 126
- 1.197229 0 1 cbr 1000 ------- 1 0.1 1073741824.0 40 119
- 1.197229 1 4 cbr 1000 ------- 2 1.1 1073741825.0 40 122
- 1.197229 2 5 cbr 1000 ------- 3 2.1 1073741826.0 40 125
- 1.198029 0 1 cbr 1000 ------- 1 0.1 1073741824.0 41 120
- 1.198029 1 4 cbr 1000 ------- 2 1.1 1073741825.0 41 123
- 1.198029 2 5 cbr 1000 ------- 3 2.1 1073741826.0 41 126
r 1.207229 0 1 cbr 1000 ------- 1 0.1 1073741824.0 39 118
+ 1.207229 1 3 cbr 1000 ------- 1 0.1 1073741824.0 39 118
- 1.207229 1 3 cbr 1000 ------- 1 0.1 1073741824.0 39 118
r 1.207229 1 4 cbr 1000 ------- 2 1.1 1073741825.0 39 121
+ 1.207229 4 3 cbr 1000 ------- 2 1.1 1073741825.0 39 121
- 1.207229 4 3 cbr 1000 ------- 2 1.1 1073741825.0 39 121
r 1.207229 2 5 cbr 1000 ------- 3 2.1 1073741826.0 39 124
r 1.208029 0 1 cbr 1000 ------- 1 0.1 1073741824.0 40 119
+ 1.208029 1 3 cbr 1000 ------- 1 0.1 1073741824.0 40 119
r 1.208029 1 4 cbr 1000 ------- 2 1.1 1073741825.0 40 122
+ 1.208029 4 3 cbr 1000 ------- 2 1.1 1073741825.0 40 122
r 1.208029 2 5 cbr 1000 ------- 3 2.1 1073741826.0 40 125
- 1.208029 1 3 cbr 1000 ------- 1 0.1 1073741824.0 40 119
- 1.208029 4 3 cbr 1000 ------- 2 1.1 1073741825.0 40 122