+ 0.5 0 2 cbr 1000 ------- 1 0.1 1073741824.0 0 0
- 0.5 0 2 cbr 1000 ------- 1 0.1 1073741824.0 0 0
+ 0.5 0 1 cbr 1000 ------- 1 0.1 1073741824.0 0 0
- 0.5 0 1 cbr 1000 ------- 1 0.1 1073741824.0 0 0
+ 0.5 0 2 cbr 1000 ------- 1 0.1 1073741824.0 1 1
+ 0.5 0 1 cbr 1000 ------- 1 0.1 1073741824.0 1 1
+ 0.5 0 2 cbr 1000 ------- 1 0.1 1073741824.0 2 2
+ 0.5 0 1 cbr 1000 ------- 1 0.1 1073741824.0 2 2
+ 0.5 1 2 cbr 1000 ------- 2 1.1 1073741825.0 0 3
- 0.5 1 2 cbr 1000 ------- 2 1.1 1073741825.0 0 3
+ 0.5 1 3 cbr 1000 ------- 2 1.1 1073741825.0 0 3
- 0.5 1 3 cbr 1000 ------- 2 1.1 1073741825.0 0 3
+ 0.5 1 4 cbr 1000 ------- 2 1.1 1073741825.0 0 3
- 0.5 1 4 cbr 1000 ------- 2 1.1 1073741825.0 0 3
+ 0.5 1 0 cbr 1000 ------- 2 1.1 1073741825.0 0 3
- 0.5 1 0 cbr 1000 ------- 2 1.1 1073741825.0 0 3
+ 0.5 1 2 cbr 1000 ------- 2 1.1 1073741825.0 1 4
+ 0.5 1 3 cbr 1000 ------- 2 1.1 1073741825.0 1 4
+ 0.5 1 4 cbr 1000 ------- 2 1.1 1073741825.0 1 4
+ 0.5 1 0 cbr 1000 ------- 2 1.1 1073741825.0 1 4
+ 0.5 1 2 cbr 1000 ------- 2 1.1 1073741825.0 2 5
+ 0.5 1 3 cbr 1000 ------- 2 1.1 1073741825.0 2 5
+ 0.5 1 4 cbr 1000 ------- 2 1.1 1073741825.0 2 5
+ 0.5 1 0 cbr 1000 ------- 2 1.1 1073741825.0 2 5
+ 0.5 2 0 cbr 1000 ------- 3 2.1 1073741826.0 0 6
- 0.5 2 0 cbr 1000 ------- 3 2.1 1073741826.0 0 6
+ 0.5 2 1 cbr 1000 ------- 3 2.1 1073741826.0 0 6
- 0.5 2 1 cbr 1000 ------- 3 2.1 1073741826.0 0 6
+ 0.5 2 4 cbr 1000 ------- 3 2.1 1073741826.0 0 6
- 0.5 2 4 cbr 1000 ------- 3 2.1 1073741826.0 0 6
+ 0.5 2 5 cbr 1000 ------- 3 2.1 1073741826.0 0 6
- 0.5 2 5 cbr 1000 ------- 3 2.1 1073741826.0 0 6
+ 0.5 2 0 cbr 1000 ------- 3 2.1 1073741826.0 1 7
+ 0.5 2 1 cbr 1000 ------- 3 2.1 1073741826.0 1 7
+ 0.5 2 4 cbr 1000 ------- 3 2.1 1073741826.0 1 7
+ 0.5 2 5 cbr 1000 ------- 3 2.1 1073741826.0 1 7
+ 0.5 2 0 cbr 1000 ------- 3 2.1 1073741826.0 2 8
+ 0.5 2 1 cbr 1000 ------- 3 2.1 1073741826.0 2 8
+ 0.5 2 4 cbr 1000 ------- 3 2.1 1073741826.0 2 8
+ 0.5 2 5 cbr 1000 ------- 3 2.1 1073741826.0 2 8
- 0.5008 0 2 cbr 1000 ------- 1 0.1 1073741824.0 1 1
- 0.5008 0 1 cbr 1000 ------- 1 0.1 1073741824.0 1 1
- 0.5008 1 2 cbr 1000 ------- 2 1.1 1073741825.0 1 4
- 0.5008 1 3 cbr 1000 ------- 2 1.1 1073741825.0 1 4
- 0.5008 1 4 cbr 1000 ------- 2 1.1 1073741825.0 1 4
- 0.5008 1 0 cbr 1000 ------- 2 1.1 1073741825.0 1 4
- 0.5008 2 0 cbr 1000 ------- 3 2.1 1073741826.0 1 7
- 0.5008 2 1 cbr 1000 ------- 3 2.1 1073741826.0 1 7
- 0.5008 2 4 cbr 1000 ------- 3 2.1 1073741826.0 1 7
- 0.5008 2 5 cbr 1000 ------- 3 2.1 1073741826.0 1 7
- 0.5016 0 2 cbr 1000 ------- 1 0.1 1073741824.0 2 2
- 0.5016 0 1 cbr 1000 ------- 1 0.1 1073741824.0 2 2
- 0.5016 1 2 cbr 1000 ------- 2 1.1 1073741825.0 2 5
- 0.5016 1 3 cbr 1000 ------- 2 1.1 1073741825.0 2 5
- 0.5016 1 4 cbr 1000 ------- 2 1.1 1073741825.0 2 5
- 0.5016 1 0 cbr 1000 ------- 2 1.1 1073741825.0 2 5
- 0.5016 2 0 cbr 1000 ------- 3 2.1 1073741826.0 2 8
- 0.5016 2 1 cbr 1000 ------- 3 2.1 1073741826.0 2 8
- 0.5016 2 4 cbr 1000 ------- 3 2.1 1073741826.0 2 8
- 0.5016 2 5 cbr 1000 ------- 3 2.1 1073741826.0 2 8
r 0.5108 0 2 cbr 1000 ------- 1 0.1 1073741824.0 0 0
+ 0.5108 2 5 cbr 1000 ------- 1 0.1 1073741824.0 0 0
- 0.5108 2 5 cbr 1000 ------- 1 0.1 1073741824.0 0 0
r 0.5108 0 1 cbr 1000 ------- 1 0.1 1073741824.0 0 0
+ 0.5108 1 3 cbr 1000 ------- 1 0.1 1073741824.0 0 0
- 0.5108 1 3 cbr 1000 ------- 1 0.1 1073741824.0 0 0
+ 0.5108 1 4 cbr 1000 ------- 1 0.1 1073741824.0 0 0
- 0.5108 1 4 cbr 1000 ------- 1 0.1 1073741824.0 0 0
r 0.5108 1 2 cbr 1000 ------- 2 1.1 1073741825.0 0 3
+ 0.5108 2 5 cbr 1000 ------- 2 1.1 1073741825.0 0 3
r 0.5108 1 3 cbr 1000 ------- 2 1.1 1073741825.0 0 3
+ 0.5108 3 6 cbr 1000 ------- 2 1.1 1073741825.0 0 3
- 0.5108 3 6 cbr 1000 ------- 2 1.1 1073741825.0 0 3
+ 0.5108 3 7 cbr 1000 ------- 2 1.1 1073741825.0 0 3
- 0.5108 3 7 cbr 1000 ------- 2 1.1 1073741825.0 0 3
r 0.5108 1 4 cbr 1000 ------- 2 1.1 1073741825.0 0 3
+ 0.5108 4 8 cbr 1000 ------- 2 1.1 1073741825.0 0 3
- 0.5108 4 8 cbr 1000 ------- 2 1.1 1073741825.0 0 3
r 0.5108 1 0 cbr 1000 ------- 2 1.1 1073741825.0 0 3
+ 0.5108 0 1 prune 80 ------- 30 0.0 1.0 -1 9
- 0.5108 0 1 prune 80 ------- 30 0.0 1.0 -1 9
r 0.5108 2 0 cbr 1000 ------- 3 2.1 1073741826.0 0 6
+ 0.5108 0 2 prune 80 ------- 30 0.0 2.0 -1 10
- 0.5108 0 2 prune 80 ------- 30 0.0 2.0 -1 10
r 0.5108 2 1 cbr 1000 ------- 3 2.1 1073741826.0 0 6
+ 0.5108 1 3 cbr 1000 ------- 3 2.1 1073741826.0 0 6
r 0.5108 2 4 cbr 1000 ------- 3 2.1 1073741826.0 0 6
+ 0.5108 4 7 cbr 1000 ------- 3 2.1 1073741826.0 0 6
- 0.5108 4 7 cbr 1000 ------- 3 2.1 1073741826.0 0 6
+ 0.5108 4 8 cbr 1000 ------- 3 2.1 1073741826.0 0 6
r 0.5108 2 5 cbr 1000 ------- 3 2.1 1073741826.0 0 6
+ 0.5108 5 9 cbr 1000 ------- 3 2.1 1073741826.0 0 6
- 0.5108 5 9 cbr 1000 ------- 3 2.1 1073741826.0 0 6
r 0.5116 0 2 cbr 1000 ------- 1 0.1 1073741824.0 1 1
+ 0.5116 2 5 cbr 1000 ------- 1 0.1 1073741824.0 1 1
r 0.5116 0 1 cbr 1000 ------- 1 0.1 1073741824.0 1 1
+ 0.5116 1 3 cbr 1000 ------- 1 0.1 1073741824.0 1 1
+ 0.5116 1 4 cbr 1000 ------- 1 0.1 1073741824.0 1 1
r 0.5116 1 2 cbr 1000 ------- 2 1.1 1073741825.0 1 4
+ 0.5116 2 5 cbr 1000 ------- 2 1.1 1073741825.0 1 4
r 0.5116 1 3 cbr 1000 ------- 2 1.1 1073741825.0 1 4
+ 0.5116 3 6 cbr 1000 ------- 2 1.1 1073741825.0 1 4
+ 0.5116 3 7 cbr 1000 ------- 2 1.1 1073741825.0 1 4
r 0.5116 1 4 cbr 1000 ------- 2 1.1 1073741825.0 1 4
+ 0.5116 4 8 cbr 1000 ------- 2 1.1 1073741825.0 1 4
r 0.5116 1 0 cbr 1000 ------- 2 1.1 1073741825.0 1 4
+ 0.5116 0 1 prune 80 ------- 30 0.0 1.0 -1 11
- 0.5116 0 1 prune 80 ------- 30 0.0 1.0 -1 11
r 0.5116 2 0 cbr 1000 ------- 3 2.1 1073741826.0 1 7
+ 0.5116 0 2 prune 80 ------- 30 0.0 2.0 -1 12
- 0.5116 0 2 prune 80 ------- 30 0.0 2.0 -1 12
r 0.5116 2 1 cbr 1000 ------- 3 2.1 1073741826.0 1 7
+ 0.5116 1 3 cbr 1000 ------- 3 2.1 1073741826.0 1 7
r 0.5116 2 4 cbr 1000 ------- 3 2.1 1073741826.0 1 7
+ 0.5116 4 7 cbr 1000 ------- 3 2.1 1073741826.0 1 7
+ 0.5116 4 8 cbr 1000 ------- 3 2.1 1073741826.0 1 7
r 0.5116 2 5 cbr 1000 ------- 3 2.1 1073741826.0 1 7
+ 0.5116 5 9 cbr 1000 ------- 3 2.1 1073741826.0 1 7
- 0.5116 2 5 cbr 1000 ------- 2 1.1 1073741825.0 0 3
- 0.5116 1 3 cbr 1000 ------- 3 2.1 1073741826.0 0 6
- 0.5116 1 4 cbr 1000 ------- 1 0.1 1073741824.0 1 1
- 0.5116 3 6 cbr 1000 ------- 2 1.1 1073741825.0 1 4
- 0.5116 3 7 cbr 1000 ------- 2 1.1 1073741825.0 1 4
- 0.5116 4 8 cbr 1000 ------- 3 2.1 1073741826.0 0 6
- 0.5116 4 7 cbr 1000 ------- 3 2.1 1073741826.0 1 7
- 0.5116 5 9 cbr 1000 ------- 3 2.1 1073741826.0 1 7
r 0.5124 0 2 cbr 1000 ------- 1 0.1 1073741824.0 2 2
+ 0.5124 2 5 cbr 1000 ------- 1 0.1 1073741824.0 2 2
r 0.5124 0 1 cbr 1000 ------- 1 0.1 1073741824.0 2 2
+ 0.5124 1 3 cbr 1000 ------- 1 0.1 1073741824.0 2 2
+ 0.5124 1 4 cbr 1000 ------- 1 0.1 1073741824.0 2 2
r 0.5124 1 2 cbr 1000 ------- 2 1.1 1073741825.0 2 5
+ 0.5124 2 5 cbr 1000 ------- 2 1.1 1073741825.0 2 5
r 0.5124 1 3 cbr 1000 ------- 2 1.1 1073741825.0 2 5
+ 0.5124 3 6 cbr 1000 ------- 2 1.1 1073741825.0 2 5
+ 0.5124 3 7 cbr 1000 ------- 2 1.1 1073741825.0 2 5
r 0.5124 1 4 cbr 1000 ------- 2 1.1 1073741825.0 2 5
+ 0.5124 4 8 cbr 1000 ------- 2 1.1 1073741825.0 2 5
r 0.5124 1 0 cbr 1000 ------- 2 1.1 1073741825.0 2 5
+ 0.5124 0 1 prune 80 ------- 30 0.0 1.0 -1 13
- 0.5124 0 1 prune 80 ------- 30 0.0 1.0 -1 13
r 0.5124 2 0 cbr 1000 ------- 3 2.1 1073741826.0 2 8
+ 0.5124 0 2 prune 80 ------- 30 0.0 2.0 -1 14
- 0.5124 0 2 prune 80 ------- 30 0.0 2.0 -1 14
r 0.5124 2 1 cbr 1000 ------- 3 2.1 1073741826.0 2 8
+ 0.5124 1 3 cbr 1000 ------- 3 2.1 1073741826.0 2 8
r 0.5124 2 4 cbr 1000 ------- 3 2.1 1073741826.0 2 8
+ 0.5124 4 7 cbr 1000 ------- 3 2.1 1073741826.0 2 8
+ 0.5124 4 8 cbr 1000 ------- 3 2.1 1073741826.0 2 8
r 0.5124 2 5 cbr 1000 ------- 3 2.1 1073741826.0 2 8
+ 0.5124 5 9 cbr 1000 ------- 3 2.1 1073741826.0 2 8
- 0.5124 2 5 cbr 1000 ------- 1 0.1 1073741824.0 1 1
- 0.5124 1 3 cbr 1000 ------- 1 0.1 1073741824.0 1 1
- 0.5124 1 4 cbr 1000 ------- 1 0.1 1073741824.0 2 2
- 0.5124 3 6 cbr 1000 ------- 2 1.1 1073741825.0 2 5
- 0.5124 3 7 cbr 1000 ------- 2 1.1 1073741825.0 2 5
- 0.5124 4 8 cbr 1000 ------- 2 1.1 1073741825.0 1 4
- 0.5124 4 7 cbr 1000 ------- 3 2.1 1073741826.0 2 8
- 0.5124 5 9 cbr 1000 ------- 3 2.1 1073741826.0 2 8
- 0.5132 2 5 cbr 1000 ------- 2 1.1 1073741825.0 1 4
- 0.5132 1 3 cbr 1000 ------- 3 2.1 1073741826.0 1 7
- 0.5132 4 8 cbr 1000 ------- 3 2.1 1073741826.0 1 7
- 0.514 2 5 cbr 1000 ------- 1 0.1 1073741824.0 2 2
- 0.514 1 3 cbr 1000 ------- 1 0.1 1073741824.0 2 2
- 0.514 4 8 cbr 1000 ------- 2 1.1 1073741825.0 2 5
- 0.5148 2 5 cbr 1000 ------- 2 1.1 1073741825.0 2 5
- 0.5148 1 3 cbr 1000 ------- 3 2.1 1073741826.0 2 8
- 0.5148 4 8 cbr 1000 ------- 3 2.1 1073741826.0 2 8
r 0.520864 0 1 prune 80 ------- 30 0.0 1.0 -1 9
r 0.520864 0 2 prune 80 ------- 30 0.0 2.0 -1 10
r 0.5216 2 5 cbr 1000 ------- 1 0.1 1073741824.0 0 0
+ 0.5216 5 9 cbr 1000 ------- 1 0.1 1073741824.0 0 0
- 0.5216 5 9 cbr 1000 ------- 1 0.1 1073741824.0 0 0
r 0.5216 1 3 cbr 1000 ------- 1 0.1 1073741824.0 0 0
+ 0.5216 3 6 cbr 1000 ------- 1 0.1 1073741824.0 0 0
- 0.5216 3 6 cbr 1000 ------- 1 0.1 1073741824.0 0 0
+ 0.5216 3 7 cbr 1000 ------- 1 0.1 1073741824.0 0 0
- 0.5216 3 7 cbr 1000 ------- 1 0.1 1073741824.0 0 0
r 0.5216 1 4 cbr 1000 ------- 1 0.1 1073741824.0 0 0
+ 0.5216 4 8 cbr 1000 ------- 1 0.1 1073741824.0 0 0
- 0.5216 4 8 cbr 1000 ------- 1 0.1 1073741824.0 0 0
r 0.5216 3 6 cbr 1000 ------- 2 1.1 1073741825.0 0 3
+ 0.5216 6 3 prune 80 ------- 30 6.0 3.0 -1 15
- 0.5216 6 3 prune 80 ------- 30 6.0 3.0 -1 15
r 0.5216 3 7 cbr 1000 ------- 2 1.1 1073741825.0 0 3
+ 0.5216 7 3 prune 80 ------- 30 7.0 3.0 -1 16
- 0.5216 7 3 prune 80 ------- 30 7.0 3.0 -1 16
r 0.5216 4 8 cbr 1000 ------- 2 1.1 1073741825.0 0 3
+ 0.5216 8 4 prune 80 ------- 30 8.0 4.0 -1 17
- 0.5216 8 4 prune 80 ------- 30 8.0 4.0 -1 17
r 0.5216 4 7 cbr 1000 ------- 3 2.1 1073741826.0 0 6
+ 0.5216 7 4 prune 80 ------- 30 7.0 4.0 -1 18
- 0.5216 7 4 prune 80 ------- 30 7.0 4.0 -1 18
r 0.5216 5 9 cbr 1000 ------- 3 2.1 1073741826.0 0 6
+ 0.5216 9 5 prune 80 ------- 30 9.0 5.0 -1 19
- 0.5216 9 5 prune 80 ------- 30 9.0 5.0 -1 19
r 0.521664 0 1 prune 80 ------- 30 0.0 1.0 -1 11
r 0.521664 0 2 prune 80 ------- 30 0.0 2.0 -1 12
r 0.5224 2 5 cbr 1000 ------- 2 1.1 1073741825.0 0 3
+ 0.5224 5 9 cbr 1000 ------- 2 1.1 1073741825.0 0 3
r 0.5224 1 3 cbr 1000 ------- 3 2.1 1073741826.0 0 6
+ 0.5224 3 6 cbr 1000 ------- 3 2.1 1073741826.0 0 6
r 0.5224 1 4 cbr 1000 ------- 1 0.1 1073741824.0 1 1
+ 0.5224 4 8 cbr 1000 ------- 1 0.1 1073741824.0 1 1
r 0.5224 3 6 cbr 1000 ------- 2 1.1 1073741825.0 1 4
+ 0.5224 6 3 prune 80 ------- 30 6.0 3.0 -1 20
- 0.5224 6 3 prune 80 ------- 30 6.0 3.0 -1 20
r 0.5224 3 7 cbr 1000 ------- 2 1.1 1073741825.0 1 4
+ 0.5224 7 3 prune 80 ------- 30 7.0 3.0 -1 21
- 0.5224 7 3 prune 80 ------- 30 7.0 3.0 -1 21
r 0.5224 4 8 cbr 1000 ------- 3 2.1 1073741826.0 0 6
+ 0.5224 8 4 prune 80 ------- 30 8.0 4.0 -1 22
- 0.5224 8 4 prune 80 ------- 30 8.0 4.0 -1 22
r 0.5224 4 7 cbr 1000 ------- 3 2.1 1073741826.0 1 7
+ 0.5224 7 4 prune 80 ------- 30 7.0 4.0 -1 23
- 0.5224 7 4 prune 80 ------- 30 7.0 4.0 -1 23
r 0.5224 5 9 cbr 1000 ------- 3 2.1 1073741826.0 1 7
+ 0.5224 9 5 prune 80 ------- 30 9.0 5.0 -1 24
- 0.5224 9 5 prune 80 ------- 30 9.0 5.0 -1 24
- 0.5224 5 9 cbr 1000 ------- 2 1.1 1073741825.0 0 3
- 0.5224 3 6 cbr 1000 ------- 3 2.1 1073741826.0 0 6
- 0.5224 4 8 cbr 1000 ------- 1 0.1 1073741824.0 1 1
r 0.522464 0 1 prune 80 ------- 30 0.0 1.0 -1 13
r 0.522464 0 2 prune 80 ------- 30 0.0 2.0 -1 14
r 0.5232 2 5 cbr 1000 ------- 1 0.1 1073741824.0 1 1
+ 0.5232 5 9 cbr 1000 ------- 1 0.1 1073741824.0 1 1
r 0.5232 1 3 cbr 1000 ------- 1 0.1 1073741824.0 1 1
+ 0.5232 3 6 cbr 1000 ------- 1 0.1 1073741824.0 1 1
+ 0.5232 3 7 cbr 1000 ------- 1 0.1 1073741824.0 1 1
- 0.5232 3 7 cbr 1000 ------- 1 0.1 1073741824.0 1 1
r 0.5232 1 4 cbr 1000 ------- 1 0.1 1073741824.0 2 2
+ 0.5232 4 8 cbr 1000 ------- 1 0.1 1073741824.0 2 2
r 0.5232 3 6 cbr 1000 ------- 2 1.1 1073741825.0 2 5
+ 0.5232 6 3 prune 80 ------- 30 6.0 3.0 -1 25
- 0.5232 6 3 prune 80 ------- 30 6.0 3.0 -1 25
r 0.5232 3 7 cbr 1000 ------- 2 1.1 1073741825.0 2 5
+ 0.5232 7 3 prune 80 ------- 30 7.0 3.0 -1 26
- 0.5232 7 3 prune 80 ------- 30 7.0 3.0 -1 26
r 0.5232 4 8 cbr 1000 ------- 2 1.1 1073741825.0 1 4
+ 0.5232 8 4 prune 80 ------- 30 8.0 4.0 -1 27
- 0.5232 8 4 prune 80 ------- 30 8.0 4.0 -1 27
r 0.5232 4 7 cbr 1000 ------- 3 2.1 1073741826.0 2 8
+ 0.5232 7 4 prune 80 ------- 30 7.0 4.0 -1 28
- 0.5232 7 4 prune 80 ------- 30 7.0 4.0 -1 28
r 0.5232 5 9 cbr 1000 ------- 3 2.1 1073741826.0 2 8
+ 0.5232 9 5 prune 80 ------- 30 9.0 5.0 -1 29
- 0.5232 9 5 prune 80 ------- 30 9.0 5.0 -1 29
- 0.5232 5 9 cbr 1000 ------- 1 0.1 1073741824.0 1 1
- 0.5232 3 6 cbr 1000 ------- 1 0.1 1073741824.0 1 1
- 0.5232 4 8 cbr 1000 ------- 1 0.1 1073741824.0 2 2
r 0.524 2 5 cbr 1000 ------- 2 1.1 1073741825.0 1 4
+ 0.524 5 9 cbr 1000 ------- 2 1.1 1073741825.0 1 4
r 0.524 1 3 cbr 1000 ------- 3 2.1 1073741826.0 1 7
+ 0.524 3 6 cbr 1000 ------- 3 2.1 1073741826.0 1 7
r 0.524 4 8 cbr 1000 ------- 3 2.1 1073741826.0 1 7
+ 0.524 8 4 prune 80 ------- 30 8.0 4.0 -1 30
- 0.524 8 4 prune 80 ------- 30 8.0 4.0 -1 30
- 0.524 5 9 cbr 1000 ------- 2 1.1 1073741825.0 1 4
- 0.524 3 6 cbr 1000 ------- 3 2.1 1073741826.0 1 7
r 0.5248 2 5 cbr 1000 ------- 1 0.1 1073741824.0 2 2
+ 0.5248 5 9 cbr 1000 ------- 1 0.1 1073741824.0 2 2
r 0.5248 1 3 cbr 1000 ------- 1 0.1 1073741824.0 2 2
+ 0.5248 3 6 cbr 1000 ------- 1 0.1 1073741824.0 2 2
+ 0.5248 3 7 cbr 1000 ------- 1 0.1 1073741824.0 2 2
- 0.5248 3 7 cbr 1000 ------- 1 0.1 1073741824.0 2 2
r 0.5248 4 8 cbr 1000 ------- 2 1.1 1073741825.0 2 5
+ 0.5248 8 4 prune 80 ------- 30 8.0 4.0 -1 31
- 0.5248 8 4 prune 80 ------- 30 8.0 4.0 -1 31
- 0.5248 5 9 cbr 1000 ------- 1 0.1 1073741824.0 2 2
- 0.5248 3 6 cbr 1000 ------- 1 0.1 1073741824.0 2 2
r 0.5256 2 5 cbr 1000 ------- 2 1.1 1073741825.0 2 5
+ 0.5256 5 9 cbr 1000 ------- 2 1.1 1073741825.0 2 5
r 0.5256 1 3 cbr 1000 ------- 3 2.1 1073741826.0 2 8
+ 0.5256 3 6 cbr 1000 ------- 3 2.1 1073741826.0 2 8
r 0.5256 4 8 cbr 1000 ------- 3 2.1 1073741826.0 2 8
+ 0.5256 8 4 prune 80 ------- 30 8.0 4.0 -1 32
- 0.5256 8 4 prune 80 ------- 30 8.0 4.0 -1 32
- 0.5256 5 9 cbr 1000 ------- 2 1.1 1073741825.0 2 5
- 0.5256 3 6 cbr 1000 ------- 3 2.1 1073741826.0 2 8
r 0.531664 6 3 prune 80 ------- 30 6.0 3.0 -1 15
r 0.531664 7 3 prune 80 ------- 30 7.0 3.0 -1 16
+ 0.531664 3 1 prune 80 ------- 30 3.0 1.0 -1 33
- 0.531664 3 1 prune 80 ------- 30 3.0 1.0 -1 33
r 0.531664 8 4 prune 80 ------- 30 8.0 4.0 -1 17
+ 0.531664 4 1 prune 80 ------- 30 4.0 1.0 -1 34
- 0.531664 4 1 prune 80 ------- 30 4.0 1.0 -1 34
r 0.531664 7 4 prune 80 ------- 30 7.0 4.0 -1 18
r 0.531664 9 5 prune 80 ------- 30 9.0 5.0 -1 19
+ 0.531664 5 2 prune 80 ------- 30 5.0 2.0 -1 35
- 0.531664 5 2 prune 80 ------- 30 5.0 2.0 -1 35
r 0.5324 5 9 cbr 1000 ------- 1 0.1 1073741824.0 0 0
+ 0.5324 9 5 prune 80 ------- 30 9.0 5.0 -1 36
- 0.5324 9 5 prune 80 ------- 30 9.0 5.0 -1 36
r 0.5324 3 6 cbr 1000 ------- 1 0.1 1073741824.0 0 0
+ 0.5324 6 3 prune 80 ------- 30 6.0 3.0 -1 37
- 0.5324 6 3 prune 80 ------- 30 6.0 3.0 -1 37
r 0.5324 3 7 cbr 1000 ------- 1 0.1 1073741824.0 0 0
+ 0.5324 7 3 prune 80 ------- 30 7.0 3.0 -1 38
- 0.5324 7 3 prune 80 ------- 30 7.0 3.0 -1 38
r 0.5324 4 8 cbr 1000 ------- 1 0.1 1073741824.0 0 0
+ 0.5324 8 4 prune 80 ------- 30 8.0 4.0 -1 39
- 0.5324 8 4 prune 80 ------- 30 8.0 4.0 -1 39
r 0.532464 6 3 prune 80 ------- 30 6.0 3.0 -1 20
r 0.532464 7 3 prune 80 ------- 30 7.0 3.0 -1 21
r 0.532464 8 4 prune 80 ------- 30 8.0 4.0 -1 22
+ 0.532464 4 2 prune 80 ------- 30 4.0 2.0 -1 40
- 0.532464 4 2 prune 80 ------- 30 4.0 2.0 -1 40
r 0.532464 7 4 prune 80 ------- 30 7.0 4.0 -1 23
r 0.532464 9 5 prune 80 ------- 30 9.0 5.0 -1 24
r 0.5332 5 9 cbr 1000 ------- 2 1.1 1073741825.0 0 3
+ 0.5332 9 5 prune 80 ------- 30 9.0 5.0 -1 41
- 0.5332 9 5 prune 80 ------- 30 9.0 5.0 -1 41
r 0.5332 3 6 cbr 1000 ------- 3 2.1 1073741826.0 0 6
+ 0.5332 6 3 prune 80 ------- 30 6.0 3.0 -1 42
- 0.5332 6 3 prune 80 ------- 30 6.0 3.0 -1 42
r 0.5332 4 8 cbr 1000 ------- 1 0.1 1073741824.0 1 1
+ 0.5332 8 4 prune 80 ------- 30 8.0 4.0 -1 43
- 0.5332 8 4 prune 80 ------- 30 8.0 4.0 -1 43
r 0.533264 6 3 prune 80 ------- 30 6.0 3.0 -1 25
r 0.533264 7 3 prune 80 ------- 30 7.0 3.0 -1 26
r 0.533264 8 4 prune 80 ------- 30 8.0 4.0 -1 27
r 0.533264 7 4 prune 80 ------- 30 7.0 4.0 -1 28
r 0.533264 9 5 prune 80 ------- 30 9.0 5.0 -1 29
r 0.534 3 7 cbr 1000 ------- 1 0.1 1073741824.0 1 1
+ 0.534 7 3 prune 80 ------- 30 7.0 3.0 -1 44
- 0.534 7 3 prune 80 ------- 30 7.0 3.0 -1 44
r 0.534 5 9 cbr 1000 ------- 1 0.1 1073741824.0 1 1
+ 0.534 9 5 prune 80 ------- 30 9.0 5.0 -1 45
- 0.534 9 5 prune 80 ------- 30 9.0 5.0 -1 45
r 0.534 3 6 cbr 1000 ------- 1 0.1 1073741824.0 1 1
+ 0.534 6 3 prune 80 ------- 30 6.0 3.0 -1 46
- 0.534 6 3 prune 80 ------- 30 6.0 3.0 -1 46
r 0.534 4 8 cbr 1000 ------- 1 0.1 1073741824.0 2 2
+ 0.534 8 4 prune 80 ------- 30 8.0 4.0 -1 47
- 0.534 8 4 prune 80 ------- 30 8.0 4.0 -1 47
r 0.534064 8 4 prune 80 ------- 30 8.0 4.0 -1 30
r 0.5348 5 9 cbr 1000 ------- 2 1.1 1073741825.0 1 4
+ 0.5348 9 5 prune 80 ------- 30 9.0 5.0 -1 48
- 0.5348 9 5 prune 80 ------- 30 9.0 5.0 -1 48
r 0.5348 3 6 cbr 1000 ------- 3 2.1 1073741826.0 1 7
+ 0.5348 6 3 prune 80 ------- 30 6.0 3.0 -1 49
- 0.5348 6 3 prune 80 ------- 30 6.0 3.0 -1 49
r 0.534864 8 4 prune 80 ------- 30 8.0 4.0 -1 31
r 0.5356 3 7 cbr 1000 ------- 1 0.1 1073741824.0 2 2
+ 0.5356 7 3 prune 80 ------- 30 7.0 3.0 -1 50
- 0.5356 7 3 prune 80 ------- 30 7.0 3.0 -1 50
r 0.5356 5 9 cbr 1000 ------- 1 0.1 1073741824.0 2 2
+ 0.5356 9 5 prune 80 ------- 30 9.0 5.0 -1 51
- 0.5356 9 5 prune 80 ------- 30 9.0 5.0 -1 51
r 0.5356 3 6 cbr 1000 ------- 1 0.1 1073741824.0 2 2
+ 0.5356 6 3 prune 80 ------- 30 6.0 3.0 -1 52
- 0.5356 6 3 prune 80 ------- 30 6.0 3.0 -1 52
r 0.535664 8 4 prune 80 ------- 30 8.0 4.0 -1 32
r 0.5364 5 9 cbr 1000 ------- 2 1.1 1073741825.0 2 5
+ 0.5364 9 5 prune 80 ------- 30 9.0 5.0 -1 53
- 0.5364 9 5 prune 80 ------- 30 9.0 5.0 -1 53
r 0.5364 3 6 cbr 1000 ------- 3 2.1 1073741826.0 2 8
+ 0.5364 6 3 prune 80 ------- 30 6.0 3.0 -1 54
- 0.5364 6 3 prune 80 ------- 30 6.0 3.0 -1 54
r 0.541728 3 1 prune 80 ------- 30 3.0 1.0 -1 33
r 0.541728 4 1 prune 80 ------- 30 4.0 1.0 -1 34
r 0.541728 5 2 prune 80 ------- 30 5.0 2.0 -1 35
r 0.542464 9 5 prune 80 ------- 30 9.0 5.0 -1 36
+ 0.542464 5 2 prune 80 ------- 30 5.0 2.0 -1 55
- 0.542464 5 2 prune 80 ------- 30 5.0 2.0 -1 55
r 0.542464 6 3 prune 80 ------- 30 6.0 3.0 -1 37
r 0.542464 7 3 prune 80 ------- 30 7.0 3.0 -1 38
+ 0.542464 3 1 prune 80 ------- 30 3.0 1.0 -1 56
- 0.542464 3 1 prune 80 ------- 30 3.0 1.0 -1 56
r 0.542464 8 4 prune 80 ------- 30 8.0 4.0 -1 39
+ 0.542464 4 1 prune 80 ------- 30 4.0 1.0 -1 57
- 0.542464 4 1 prune 80 ------- 30 4.0 1.0 -1 57
r 0.542528 4 2 prune 80 ------- 30 4.0 2.0 -1 40
r 0.543264 9 5 prune 80 ------- 30 9.0 5.0 -1 41
+ 0.543264 5 2 prune 80 ------- 30 5.0 2.0 -1 58
- 0.543264 5 2 prune 80 ------- 30 5.0 2.0 -1 58
r 0.543264 6 3 prune 80 ------- 30 6.0 3.0 -1 42
+ 0.543264 3 1 prune 80 ------- 30 3.0 1.0 -1 59
- 0.543264 3 1 prune 80 ------- 30 3.0 1.0 -1 59
r 0.543264 8 4 prune 80 ------- 30 8.0 4.0 -1 43
r 0.544064 7 3 prune 80 ------- 30 7.0 3.0 -1 44
r 0.544064 9 5 prune 80 ------- 30 9.0 5.0 -1 45
r 0.544064 6 3 prune 80 ------- 30 6.0 3.0 -1 46
r 0.544064 8 4 prune 80 ------- 30 8.0 4.0 -1 47
r 0.544864 9 5 prune 80 ------- 30 9.0 5.0 -1 48
r 0.544864 6 3 prune 80 ------- 30 6.0 3.0 -1 49
r 0.545664 7 3 prune 80 ------- 30 7.0 3.0 -1 50
r 0.545664 9 5 prune 80 ------- 30 9.0 5.0 -1 51
r 0.545664 6 3 prune 80 ------- 30 6.0 3.0 -1 52
r 0.546464 9 5 prune 80 ------- 30 9.0 5.0 -1 53
r 0.546464 6 3 prune 80 ------- 30 6.0 3.0 -1 54
r 0.552528 5 2 prune 80 ------- 30 5.0 2.0 -1 55
+ 0.552528 2 0 prune 80 ------- 30 2.0 0.0 -1 60
- 0.552528 2 0 prune 80 ------- 30 2.0 0.0 -1 60
r 0.552528 3 1 prune 80 ------- 30 3.0 1.0 -1 56
r 0.552528 4 1 prune 80 ------- 30 4.0 1.0 -1 57
+ 0.552528 1 0 prune 80 ------- 30 1.0 0.0 -1 61
- 0.552528 1 0 prune 80 ------- 30 1.0 0.0 -1 61
r 0.553328 5 2 prune 80 ------- 30 5.0 2.0 -1 58
+ 0.553328 2 1 prune 80 ------- 30 2.0 1.0 -1 62
- 0.553328 2 1 prune 80 ------- 30 2.0 1.0 -1 62
r 0.553328 3 1 prune 80 ------- 30 3.0 1.0 -1 59
+ 0.553328 1 2 prune 80 ------- 30 1.0 2.0 -1 63
- 0.553328 1 2 prune 80 ------- 30 1.0 2.0 -1 63
+ 0.553571 0 2 cbr 1000 ------- 1 0.1 1073741824.0 3 64
- 0.553571 0 2 cbr 1000 ------- 1 0.1 1073741824.0 3 64
+ 0.553571 0 1 cbr 1000 ------- 1 0.1 1073741824.0 3 64
- 0.553571 0 1 cbr 1000 ------- 1 0.1 1073741824.0 3 64
+ 0.553571 0 2 cbr 1000 ------- 1 0.1 1073741824.0 4 65
+ 0.553571 0 1 cbr 1000 ------- 1 0.1 1073741824.0 4 65
+ 0.553571 0 2 cbr 1000 ------- 1 0.1 1073741824.0 5 66
+ 0.553571 0 1 cbr 1000 ------- 1 0.1 1073741824.0 5 66
+ 0.553571 1 2 cbr 1000 ------- 2 1.1 1073741825.0 3 67
- 0.553571 1 2 cbr 1000 ------- 2 1.1 1073741825.0 3 67
+ 0.553571 1 2 cbr 1000 ------- 2 1.1 1073741825.0 4 68
+ 0.553571 1 2 cbr 1000 ------- 2 1.1 1073741825.0 5 69
+ 0.553571 2 1 cbr 1000 ------- 3 2.1 1073741826.0 3 70
- 0.553571 2 1 cbr 1000 ------- 3 2.1 1073741826.0 3 70
+ 0.553571 2 1 cbr 1000 ------- 3 2.1 1073741826.0 4 71
+ 0.553571 2 1 cbr 1000 ------- 3 2.1 1073741826.0 5 72
- 0.554371 0 2 cbr 1000 ------- 1 0.1 1073741824.0 4 65
- 0.554371 0 1 cbr 1000 ------- 1 0.1 1073741824.0 4 65
- 0.554371 1 2 cbr 1000 ------- 2 1.1 1073741825.0 4 68
- 0.554371 2 1 cbr 1000 ------- 3 2.1 1073741826.0 4 71
- 0.555171 0 2 cbr 1000 ------- 1 0.1 1073741824.0 5 66
- 0.555171 0 1 cbr 1000 ------- 1 0.1 1073741824.0 5 66
- 0.555171 1 2 cbr 1000 ------- 2 1.1 1073741825.0 5 69
- 0.555171 2 1 cbr 1000 ------- 3 2.1 1073741826.0 5 72
r 0.562592 2 0 prune 80 ------- 30 2.0 0.0 -1 60
r 0.562592 1 0 prune 80 ------- 30 1.0 0.0 -1 61
r 0.563392 2 1 prune 80 ------- 30 2.0 1.0 -1 62
r 0.563392 1 2 prune 80 ------- 30 1.0 2.0 -1 63
r 0.564371 0 2 cbr 1000 ------- 1 0.1 1073741824.0 3 64
+ 0.564371 2 0 prune 80 ------- 30 2.0 0.0 -1 73
- 0.564371 2 0 prune 80 ------- 30 2.0 0.0 -1 73
r 0.564371 0 1 cbr 1000 ------- 1 0.1 1073741824.0 3 64
+ 0.564371 1 0 prune 80 ------- 30 1.0 0.0 -1 74
- 0.564371 1 0 prune 80 ------- 30 1.0 0.0 -1 74
r 0.564371 1 2 cbr 1000 ------- 2 1.1 1073741825.0 3 67
+ 0.564371 2 1 prune 80 ------- 30 2.0 1.0 -1 75
- 0.564371 2 1 prune 80 ------- 30 2.0 1.0 -1 75
r 0.564371 2 1 cbr 1000 ------- 3 2.1 1073741826.0 3 70
+ 0.564371 1 2 prune 80 ------- 30 1.0 2.0 -1 76
- 0.564371 1 2 prune 80 ------- 30 1.0 2.0 -1 76
r 0.565171 0 2 cbr 1000 ------- 1 0.1 1073741824.0 4 65
+ 0.565171 2 0 prune 80 ------- 30 2.0 0.0 -1 77
- 0.565171 2 0 prune 80 ------- 30 2.0 0.0 -1 77
r 0.565171 0 1 cbr 1000 ------- 1 0.1 1073741824.0 4 65
+ 0.565171 1 0 prune 80 ------- 30 1.0 0.0 -1 78
- 0.565171 1 0 prune 80 ------- 30 1.0 0.0 -1 78
r 0.565171 1 2 cbr 1000 ------- 2 1.1 1073741825.0 4 68
+ 0.565171 2 1 prune 80 ------- 30 2.0 1.0 -1 79
- 0.565171 2 1 prune 80 ------- 30 2.0 1.0 -1 79
r 0.565171 2 1 cbr 1000 ------- 3 2.1 1073741826.0 4 71
+ 0.565171 1 2 prune 80 ------- 30 1.0 2.0 -1 80
- 0.565171 1 2 prune 80 ------- 30 1.0 2.0 -1 80
r 0.565971 0 2 cbr 1000 ------- 1 0.1 1073741824.0 5 66
+ 0.565971 2 0 prune 80 ------- 30 2.0 0.0 -1 81
- 0.565971 2 0 prune 80 ------- 30 2.0 0.0 -1 81
r 0.565971 0 1 cbr 1000 ------- 1 0.1 1073741824.0 5 66
+ 0.565971 1 0 prune 80 ------- 30 1.0 0.0 -1 82
- 0.565971 1 0 prune 80 ------- 30 1.0 0.0 -1 82
r 0.565971 1 2 cbr 1000 ------- 2 1.1 1073741825.0 5 69
+ 0.565971 2 1 prune 80 ------- 30 2.0 1.0 -1 83
- 0.565971 2 1 prune 80 ------- 30 2.0 1.0 -1 83
r 0.565971 2 1 cbr 1000 ------- 3 2.1 1073741826.0 5 72
+ 0.565971 1 2 prune 80 ------- 30 1.0 2.0 -1 84
- 0.565971 1 2 prune 80 ------- 30 1.0 2.0 -1 84
r 0.574435 2 0 prune 80 ------- 30 2.0 0.0 -1 73
r 0.574435 1 0 prune 80 ------- 30 1.0 0.0 -1 74
r 0.574435 2 1 prune 80 ------- 30 2.0 1.0 -1 75
r 0.574435 1 2 prune 80 ------- 30 1.0 2.0 -1 76
r 0.575235 2 0 prune 80 ------- 30 2.0 0.0 -1 77
r 0.575235 1 0 prune 80 ------- 30 1.0 0.0 -1 78
r 0.575235 2 1 prune 80 ------- 30 2.0 1.0 -1 79
r 0.575235 1 2 prune 80 ------- 30 1.0 2.0 -1 80
r 0.576035 2 0 prune 80 ------- 30 2.0 0.0 -1 81
r 0.576035 1 0 prune 80 ------- 30 1.0 0.0 -1 82
r 0.576035 2 1 prune 80 ------- 30 2.0 1.0 -1 83
r 0.576035 1 2 prune 80 ------- 30 1.0 2.0 -1 84
v 1 eval {set sim_annotation {1 3 join-group 1073741825}}
+ 1 3 1 graft 80 ------- 31 3.0 1.0 -1 157
- 1 3 1 graft 80 ------- 31 3.0 1.0 -1 157
r 1.010064 3 1 graft 80 ------- 31 3.0 1.0 -1 157
+ 1.035714 1 3 cbr 1000 ------- 2 1.1 1073741825.0 30 161
- 1.035714 1 3 cbr 1000 ------- 2 1.1 1073741825.0 30 161
+ 1.035714 1 0 cbr 1000 ------- 2 1.1 1073741825.0 30 161
- 1.035714 1 0 cbr 1000 ------- 2 1.1 1073741825.0 30 161
+ 1.035714 1 3 cbr 1000 ------- 2 1.1 1073741825.0 31 162
+ 1.035714 1 0 cbr 1000 ------- 2 1.1 1073741825.0 31 162
+ 1.035714 1 3 cbr 1000 ------- 2 1.1 1073741825.0 32 163
+ 1.035714 1 0 cbr 1000 ------- 2 1.1 1073741825.0 32 163
+ 1.035714 2 0 cbr 1000 ------- 3 2.1 1073741826.0 30 164
- 1.035714 2 0 cbr 1000 ------- 3 2.1 1073741826.0 30 164
+ 1.035714 2 0 cbr 1000 ------- 3 2.1 1073741826.0 31 165
+ 1.035714 2 0 cbr 1000 ------- 3 2.1 1073741826.0 32 166
- 1.036514 1 3 cbr 1000 ------- 2 1.1 1073741825.0 31 162
- 1.036514 1 0 cbr 1000 ------- 2 1.1 1073741825.0 31 162
- 1.036514 2 0 cbr 1000 ------- 3 2.1 1073741826.0 31 165
- 1.037314 1 3 cbr 1000 ------- 2 1.1 1073741825.0 32 163
- 1.037314 1 0 cbr 1000 ------- 2 1.1 1073741825.0 32 163
- 1.037314 2 0 cbr 1000 ------- 3 2.1 1073741826.0 32 166
r 1.046514 1 3 cbr 1000 ------- 2 1.1 1073741825.0 30 161
+ 1.046514 3 6 cbr 1000 ------- 2 1.1 1073741825.0 30 161
- 1.046514 3 6 cbr 1000 ------- 2 1.1 1073741825.0 30 161
+ 1.046514 3 7 cbr 1000 ------- 2 1.1 1073741825.0 30 161
- 1.046514 3 7 cbr 1000 ------- 2 1.1 1073741825.0 30 161
r 1.046514 1 0 cbr 1000 ------- 2 1.1 1073741825.0 30 161
+ 1.046514 0 1 prune 80 ------- 30 0.0 1.0 -1 167
- 1.046514 0 1 prune 80 ------- 30 0.0 1.0 -1 167
r 1.046514 2 0 cbr 1000 ------- 3 2.1 1073741826.0 30 164
+ 1.046514 0 2 prune 80 ------- 30 0.0 2.0 -1 168
- 1.046514 0 2 prune 80 ------- 30 0.0 2.0 -1 168
r 1.047314 1 3 cbr 1000 ------- 2 1.1 1073741825.0 31 162
+ 1.047314 3 6 cbr 1000 ------- 2 1.1 1073741825.0 31 162
+ 1.047314 3 7 cbr 1000 ------- 2 1.1 1073741825.0 31 162
r 1.047314 1 0 cbr 1000 ------- 2 1.1 1073741825.0 31 162
+ 1.047314 0 1 prune 80 ------- 30 0.0 1.0 -1 169
- 1.047314 0 1 prune 80 ------- 30 0.0 1.0 -1 169
r 1.047314 2 0 cbr 1000 ------- 3 2.1 1073741826.0 31 165
+ 1.047314 0 2 prune 80 ------- 30 0.0 2.0 -1 170
- 1.047314 0 2 prune 80 ------- 30 0.0 2.0 -1 170
- 1.047314 3 6 cbr 1000 ------- 2 1.1 1073741825.0 31 162
- 1.047314 3 7 cbr 1000 ------- 2 1.1 1073741825.0 31 162
r 1.048114 1 3 cbr 1000 ------- 2 1.1 1073741825.0 32 163
+ 1.048114 3 6 cbr 1000 ------- 2 1.1 1073741825.0 32 163
+ 1.048114 3 7 cbr 1000 ------- 2 1.1 1073741825.0 32 163
r 1.048114 1 0 cbr 1000 ------- 2 1.1 1073741825.0 32 163
+ 1.048114 0 1 prune 80 ------- 30 0.0 1.0 -1 171
- 1.048114 0 1 prune 80 ------- 30 0.0 1.0 -1 171
r 1.048114 2 0 cbr 1000 ------- 3 2.1 1073741826.0 32 166
+ 1.048114 0 2 prune 80 ------- 30 0.0 2.0 -1 172
- 1.048114 0 2 prune 80 ------- 30 0.0 2.0 -1 172
- 1.048114 3 6 cbr 1000 ------- 2 1.1 1073741825.0 32 163
- 1.048114 3 7 cbr 1000 ------- 2 1.1 1073741825.0 32 163
r 1.056578 0 1 prune 80 ------- 30 0.0 1.0 -1 167
r 1.056578 0 2 prune 80 ------- 30 0.0 2.0 -1 168
r 1.057314 3 6 cbr 1000 ------- 2 1.1 1073741825.0 30 161
+ 1.057314 6 3 prune 80 ------- 30 6.0 3.0 -1 173
- 1.057314 6 3 prune 80 ------- 30 6.0 3.0 -1 173
r 1.057314 3 7 cbr 1000 ------- 2 1.1 1073741825.0 30 161
+ 1.057314 7 3 prune 80 ------- 30 7.0 3.0 -1 174
- 1.057314 7 3 prune 80 ------- 30 7.0 3.0 -1 174
r 1.057378 0 1 prune 80 ------- 30 0.0 1.0 -1 169
r 1.057378 0 2 prune 80 ------- 30 0.0 2.0 -1 170
r 1.058114 3 6 cbr 1000 ------- 2 1.1 1073741825.0 31 162
+ 1.058114 6 3 prune 80 ------- 30 6.0 3.0 -1 175
- 1.058114 6 3 prune 80 ------- 30 6.0 3.0 -1 175
r 1.058114 3 7 cbr 1000 ------- 2 1.1 1073741825.0 31 162
+ 1.058114 7 3 prune 80 ------- 30 7.0 3.0 -1 176
- 1.058114 7 3 prune 80 ------- 30 7.0 3.0 -1 176
r 1.058178 0 1 prune 80 ------- 30 0.0 1.0 -1 171
r 1.058178 0 2 prune 80 ------- 30 0.0 2.0 -1 172
r 1.058914 3 6 cbr 1000 ------- 2 1.1 1073741825.0 32 163
+ 1.058914 6 3 prune 80 ------- 30 6.0 3.0 -1 177
- 1.058914 6 3 prune 80 ------- 30 6.0 3.0 -1 177
r 1.058914 3 7 cbr 1000 ------- 2 1.1 1073741825.0 32 163
+ 1.058914 7 3 prune 80 ------- 30 7.0 3.0 -1 178
- 1.058914 7 3 prune 80 ------- 30 7.0 3.0 -1 178
r 1.067378 6 3 prune 80 ------- 30 6.0 3.0 -1 173
r 1.067378 7 3 prune 80 ------- 30 7.0 3.0 -1 174
r 1.068178 6 3 prune 80 ------- 30 6.0 3.0 -1 175
r 1.068178 7 3 prune 80 ------- 30 7.0 3.0 -1 176
r 1.068978 6 3 prune 80 ------- 30 6.0 3.0 -1 177
r 1.068978 7 3 prune 80 ------- 30 7.0 3.0 -1 178
+ 1.089286 0 2 cbr 1000 ------- 1 0.1 1073741824.0 33 179
- 1.089286 0 2 cbr 1000 ------- 1 0.1 1073741824.0 33 179
+ 1.089286 0 1 cbr 1000 ------- 1 0.1 1073741824.0 33 179
- 1.089286 0 1 cbr 1000 ------- 1 0.1 1073741824.0 33 179
+ 1.089286 0 2 cbr 1000 ------- 1 0.1 1073741824.0 34 180
+ 1.089286 0 1 cbr 1000 ------- 1 0.1 1073741824.0 34 180
+ 1.089286 0 2 cbr 1000 ------- 1 0.1 1073741824.0 35 181
+ 1.089286 0 1 cbr 1000 ------- 1 0.1 1073741824.0 35 181
+ 1.089286 1 3 cbr 1000 ------- 2 1.1 1073741825.0 33 182
- 1.089286 1 3 cbr 1000 ------- 2 1.1 1073741825.0 33 182
+ 1.089286 1 4 cbr 1000 ------- 2 1.1 1073741825.0 33 182
- 1.089286 1 4 cbr 1000 ------- 2 1.1 1073741825.0 33 182
+ 1.089286 1 2 cbr 1000 ------- 2 1.1 1073741825.0 33 182
- 1.089286 1 2 cbr 1000 ------- 2 1.1 1073741825.0 33 182
+ 1.089286 1 3 cbr 1000 ------- 2 1.1 1073741825.0 34 183
+ 1.089286 1 4 cbr 1000 ------- 2 1.1 1073741825.0 34 183