+ 0.5 0 2 cbr 1000 ------- 1 0.1 1073741824.0 0 0
- 0.5 0 2 cbr 1000 ------- 1 0.1 1073741824.0 0 0
+ 0.5 0 1 cbr 1000 ------- 1 0.1 1073741824.0 0 0
- 0.5 0 1 cbr 1000 ------- 1 0.1 1073741824.0 0 0
+ 0.5 0 2 cbr 1000 ------- 1 0.1 1073741824.0 1 1
+ 0.5 0 1 cbr 1000 ------- 1 0.1 1073741824.0 1 1
+ 0.5 0 2 cbr 1000 ------- 1 0.1 1073741824.0 2 2
+ 0.5 0 1 cbr 1000 ------- 1 0.1 1073741824.0 2 2
+ 0.5 1 2 cbr 1000 ------- 2 1.1 1073741825.0 0 3
- 0.5 1 2 cbr 1000 ------- 2 1.1 1073741825.0 0 3
+ 0.5 1 3 cbr 1000 ------- 2 1.1 1073741825.0 0 3
- 0.5 1 3 cbr 1000 ------- 2 1.1 1073741825.0 0 3
+ 0.5 1 4 cbr 1000 ------- 2 1.1 1073741825.0 0 3
- 0.5 1 4 cbr 1000 ------- 2 1.1 1073741825.0 0 3
+ 0.5 1 0 cbr 1000 ------- 2 1.1 1073741825.0 0 3
- 0.5 1 0 cbr 1000 ------- 2 1.1 1073741825.0 0 3
+ 0.5 1 2 cbr 1000 ------- 2 1.1 1073741825.0 1 4
+ 0.5 1 3 cbr 1000 ------- 2 1.1 1073741825.0 1 4
+ 0.5 1 4 cbr 1000 ------- 2 1.1 1073741825.0 1 4
+ 0.5 1 0 cbr 1000 ------- 2 1.1 1073741825.0 1 4
+ 0.5 1 2 cbr 1000 ------- 2 1.1 1073741825.0 2 5
+ 0.5 1 3 cbr 1000 ------- 2 1.1 1073741825.0 2 5
+ 0.5 1 4 cbr 1000 ------- 2 1.1 1073741825.0 2 5
+ 0.5 1 0 cbr 1000 ------- 2 1.1 1073741825.0 2 5
+ 0.5 2 0 cbr 1000 ------- 3 2.1 1073741826.0 0 6
- 0.5 2 0 cbr 1000 ------- 3 2.1 1073741826.0 0 6
+ 0.5 2 1 cbr 1000 ------- 3 2.1 1073741826.0 0 6
- 0.5 2 1 cbr 1000 ------- 3 2.1 1073741826.0 0 6
+ 0.5 2 4 cbr 1000 ------- 3 2.1 1073741826.0 0 6
- 0.5 2 4 cbr 1000 ------- 3 2.1 1073741826.0 0 6
+ 0.5 2 5 cbr 1000 ------- 3 2.1 1073741826.0 0 6
- 0.5 2 5 cbr 1000 ------- 3 2.1 1073741826.0 0 6
+ 0.5 2 0 cbr 1000 ------- 3 2.1 1073741826.0 1 7
+ 0.5 2 1 cbr 1000 ------- 3 2.1 1073741826.0 1 7
+ 0.5 2 4 cbr 1000 ------- 3 2.1 1073741826.0 1 7
+ 0.5 2 5 cbr 1000 ------- 3 2.1 1073741826.0 1 7
+ 0.5 2 0 cbr 1000 ------- 3 2.1 1073741826.0 2 8
+ 0.5 2 1 cbr 1000 ------- 3 2.1 1073741826.0 2 8
+ 0.5 2 4 cbr 1000 ------- 3 2.1 1073741826.0 2 8
+ 0.5 2 5 cbr 1000 ------- 3 2.1 1073741826.0 2 8
- 0.5008 0 2 cbr 1000 ------- 1 0.1 1073741824.0 1 1
- 0.5008 0 1 cbr 1000 ------- 1 0.1 1073741824.0 1 1
- 0.5008 1 2 cbr 1000 ------- 2 1.1 1073741825.0 1 4
- 0.5008 1 3 cbr 1000 ------- 2 1.1 1073741825.0 1 4
- 0.5008 1 4 cbr 1000 ------- 2 1.1 1073741825.0 1 4
- 0.5008 1 0 cbr 1000 ------- 2 1.1 1073741825.0 1 4
- 0.5008 2 0 cbr 1000 ------- 3 2.1 1073741826.0 1 7
- 0.5008 2 1 cbr 1000 ------- 3 2.1 1073741826.0 1 7
- 0.5008 2 4 cbr 1000 ------- 3 2.1 1073741826.0 1 7
- 0.5008 2 5 cbr 1000 ------- 3 2.1 1073741826.0 1 7
- 0.5016 0 2 cbr 1000 ------- 1 0.1 1073741824.0 2 2
- 0.5016 0 1 cbr 1000 ------- 1 0.1 1073741824.0 2 2
- 0.5016 1 2 cbr 1000 ------- 2 1.1 1073741825.0 2 5
- 0.5016 1 3 cbr 1000 ------- 2 1.1 1073741825.0 2 5
- 0.5016 1 4 cbr 1000 ------- 2 1.1 1073741825.0 2 5
- 0.5016 1 0 cbr 1000 ------- 2 1.1 1073741825.0 2 5
- 0.5016 2 0 cbr 1000 ------- 3 2.1 1073741826.0 2 8
- 0.5016 2 1 cbr 1000 ------- 3 2.1 1073741826.0 2 8
- 0.5016 2 4 cbr 1000 ------- 3 2.1 1073741826.0 2 8
- 0.5016 2 5 cbr 1000 ------- 3 2.1 1073741826.0 2 8
r 0.5108 0 2 cbr 1000 ------- 1 0.1 1073741824.0 0 0
+ 0.5108 2 1 cbr 1000 ------- 1 0.1 1073741824.0 0 0
- 0.5108 2 1 cbr 1000 ------- 1 0.1 1073741824.0 0 0
+ 0.5108 2 4 cbr 1000 ------- 1 0.1 1073741824.0 0 0
- 0.5108 2 4 cbr 1000 ------- 1 0.1 1073741824.0 0 0
+ 0.5108 2 5 cbr 1000 ------- 1 0.1 1073741824.0 0 0
- 0.5108 2 5 cbr 1000 ------- 1 0.1 1073741824.0 0 0
r 0.5108 0 1 cbr 1000 ------- 1 0.1 1073741824.0 0 0
+ 0.5108 1 2 cbr 1000 ------- 1 0.1 1073741824.0 0 0
- 0.5108 1 2 cbr 1000 ------- 1 0.1 1073741824.0 0 0
+ 0.5108 1 3 cbr 1000 ------- 1 0.1 1073741824.0 0 0
- 0.5108 1 3 cbr 1000 ------- 1 0.1 1073741824.0 0 0
+ 0.5108 1 4 cbr 1000 ------- 1 0.1 1073741824.0 0 0
- 0.5108 1 4 cbr 1000 ------- 1 0.1 1073741824.0 0 0
r 0.5108 1 2 cbr 1000 ------- 2 1.1 1073741825.0 0 3
+ 0.5108 2 0 cbr 1000 ------- 2 1.1 1073741825.0 0 3
- 0.5108 2 0 cbr 1000 ------- 2 1.1 1073741825.0 0 3
+ 0.5108 2 4 cbr 1000 ------- 2 1.1 1073741825.0 0 3
+ 0.5108 2 5 cbr 1000 ------- 2 1.1 1073741825.0 0 3
r 0.5108 1 3 cbr 1000 ------- 2 1.1 1073741825.0 0 3
+ 0.5108 3 4 cbr 1000 ------- 2 1.1 1073741825.0 0 3
- 0.5108 3 4 cbr 1000 ------- 2 1.1 1073741825.0 0 3
+ 0.5108 3 6 cbr 1000 ------- 2 1.1 1073741825.0 0 3
- 0.5108 3 6 cbr 1000 ------- 2 1.1 1073741825.0 0 3
+ 0.5108 3 7 cbr 1000 ------- 2 1.1 1073741825.0 0 3
- 0.5108 3 7 cbr 1000 ------- 2 1.1 1073741825.0 0 3
r 0.5108 1 4 cbr 1000 ------- 2 1.1 1073741825.0 0 3
+ 0.5108 4 2 cbr 1000 ------- 2 1.1 1073741825.0 0 3
- 0.5108 4 2 cbr 1000 ------- 2 1.1 1073741825.0 0 3
+ 0.5108 4 3 cbr 1000 ------- 2 1.1 1073741825.0 0 3
- 0.5108 4 3 cbr 1000 ------- 2 1.1 1073741825.0 0 3
+ 0.5108 4 5 cbr 1000 ------- 2 1.1 1073741825.0 0 3
- 0.5108 4 5 cbr 1000 ------- 2 1.1 1073741825.0 0 3
+ 0.5108 4 7 cbr 1000 ------- 2 1.1 1073741825.0 0 3
- 0.5108 4 7 cbr 1000 ------- 2 1.1 1073741825.0 0 3
+ 0.5108 4 8 cbr 1000 ------- 2 1.1 1073741825.0 0 3
- 0.5108 4 8 cbr 1000 ------- 2 1.1 1073741825.0 0 3
r 0.5108 1 0 cbr 1000 ------- 2 1.1 1073741825.0 0 3
+ 0.5108 0 2 cbr 1000 ------- 2 1.1 1073741825.0 0 3
- 0.5108 0 2 cbr 1000 ------- 2 1.1 1073741825.0 0 3
r 0.5108 2 0 cbr 1000 ------- 3 2.1 1073741826.0 0 6
+ 0.5108 0 1 cbr 1000 ------- 3 2.1 1073741826.0 0 6
- 0.5108 0 1 cbr 1000 ------- 3 2.1 1073741826.0 0 6
r 0.5108 2 1 cbr 1000 ------- 3 2.1 1073741826.0 0 6
+ 0.5108 1 3 cbr 1000 ------- 3 2.1 1073741826.0 0 6
+ 0.5108 1 4 cbr 1000 ------- 3 2.1 1073741826.0 0 6
+ 0.5108 1 0 cbr 1000 ------- 3 2.1 1073741826.0 0 6
- 0.5108 1 0 cbr 1000 ------- 3 2.1 1073741826.0 0 6
r 0.5108 2 4 cbr 1000 ------- 3 2.1 1073741826.0 0 6
+ 0.5108 4 1 cbr 1000 ------- 3 2.1 1073741826.0 0 6
- 0.5108 4 1 cbr 1000 ------- 3 2.1 1073741826.0 0 6
+ 0.5108 4 3 cbr 1000 ------- 3 2.1 1073741826.0 0 6
+ 0.5108 4 5 cbr 1000 ------- 3 2.1 1073741826.0 0 6
+ 0.5108 4 7 cbr 1000 ------- 3 2.1 1073741826.0 0 6
+ 0.5108 4 8 cbr 1000 ------- 3 2.1 1073741826.0 0 6
r 0.5108 2 5 cbr 1000 ------- 3 2.1 1073741826.0 0 6
+ 0.5108 5 4 cbr 1000 ------- 3 2.1 1073741826.0 0 6
- 0.5108 5 4 cbr 1000 ------- 3 2.1 1073741826.0 0 6
+ 0.5108 5 8 cbr 1000 ------- 3 2.1 1073741826.0 0 6
- 0.5108 5 8 cbr 1000 ------- 3 2.1 1073741826.0 0 6
+ 0.5108 5 9 cbr 1000 ------- 3 2.1 1073741826.0 0 6
- 0.5108 5 9 cbr 1000 ------- 3 2.1 1073741826.0 0 6
r 0.5116 0 2 cbr 1000 ------- 1 0.1 1073741824.0 1 1
+ 0.5116 2 1 cbr 1000 ------- 1 0.1 1073741824.0 1 1
+ 0.5116 2 4 cbr 1000 ------- 1 0.1 1073741824.0 1 1
+ 0.5116 2 5 cbr 1000 ------- 1 0.1 1073741824.0 1 1
r 0.5116 0 1 cbr 1000 ------- 1 0.1 1073741824.0 1 1
+ 0.5116 1 2 cbr 1000 ------- 1 0.1 1073741824.0 1 1
+ 0.5116 1 3 cbr 1000 ------- 1 0.1 1073741824.0 1 1
+ 0.5116 1 4 cbr 1000 ------- 1 0.1 1073741824.0 1 1
r 0.5116 1 2 cbr 1000 ------- 2 1.1 1073741825.0 1 4
+ 0.5116 2 0 cbr 1000 ------- 2 1.1 1073741825.0 1 4
+ 0.5116 2 4 cbr 1000 ------- 2 1.1 1073741825.0 1 4
+ 0.5116 2 5 cbr 1000 ------- 2 1.1 1073741825.0 1 4
r 0.5116 1 3 cbr 1000 ------- 2 1.1 1073741825.0 1 4
+ 0.5116 3 4 cbr 1000 ------- 2 1.1 1073741825.0 1 4
+ 0.5116 3 6 cbr 1000 ------- 2 1.1 1073741825.0 1 4
+ 0.5116 3 7 cbr 1000 ------- 2 1.1 1073741825.0 1 4
r 0.5116 1 4 cbr 1000 ------- 2 1.1 1073741825.0 1 4
+ 0.5116 4 2 cbr 1000 ------- 2 1.1 1073741825.0 1 4
+ 0.5116 4 3 cbr 1000 ------- 2 1.1 1073741825.0 1 4
+ 0.5116 4 5 cbr 1000 ------- 2 1.1 1073741825.0 1 4
+ 0.5116 4 7 cbr 1000 ------- 2 1.1 1073741825.0 1 4
+ 0.5116 4 8 cbr 1000 ------- 2 1.1 1073741825.0 1 4
r 0.5116 1 0 cbr 1000 ------- 2 1.1 1073741825.0 1 4
+ 0.5116 0 2 cbr 1000 ------- 2 1.1 1073741825.0 1 4
r 0.5116 2 0 cbr 1000 ------- 3 2.1 1073741826.0 1 7
+ 0.5116 0 1 cbr 1000 ------- 3 2.1 1073741826.0 1 7
r 0.5116 2 1 cbr 1000 ------- 3 2.1 1073741826.0 1 7
+ 0.5116 1 3 cbr 1000 ------- 3 2.1 1073741826.0 1 7
+ 0.5116 1 4 cbr 1000 ------- 3 2.1 1073741826.0 1 7
+ 0.5116 1 0 cbr 1000 ------- 3 2.1 1073741826.0 1 7
r 0.5116 2 4 cbr 1000 ------- 3 2.1 1073741826.0 1 7
+ 0.5116 4 1 cbr 1000 ------- 3 2.1 1073741826.0 1 7
+ 0.5116 4 3 cbr 1000 ------- 3 2.1 1073741826.0 1 7
+ 0.5116 4 5 cbr 1000 ------- 3 2.1 1073741826.0 1 7
+ 0.5116 4 7 cbr 1000 ------- 3 2.1 1073741826.0 1 7
+ 0.5116 4 8 cbr 1000 ------- 3 2.1 1073741826.0 1 7
r 0.5116 2 5 cbr 1000 ------- 3 2.1 1073741826.0 1 7
+ 0.5116 5 4 cbr 1000 ------- 3 2.1 1073741826.0 1 7
+ 0.5116 5 8 cbr 1000 ------- 3 2.1 1073741826.0 1 7
+ 0.5116 5 9 cbr 1000 ------- 3 2.1 1073741826.0 1 7
- 0.5116 2 1 cbr 1000 ------- 1 0.1 1073741824.0 1 1
- 0.5116 2 4 cbr 1000 ------- 2 1.1 1073741825.0 0 3
- 0.5116 2 5 cbr 1000 ------- 2 1.1 1073741825.0 0 3
- 0.5116 1 2 cbr 1000 ------- 1 0.1 1073741824.0 1 1
- 0.5116 1 3 cbr 1000 ------- 3 2.1 1073741826.0 0 6
- 0.5116 1 4 cbr 1000 ------- 3 2.1 1073741826.0 0 6
- 0.5116 2 0 cbr 1000 ------- 2 1.1 1073741825.0 1 4
- 0.5116 3 4 cbr 1000 ------- 2 1.1 1073741825.0 1 4
- 0.5116 3 6 cbr 1000 ------- 2 1.1 1073741825.0 1 4
- 0.5116 3 7 cbr 1000 ------- 2 1.1 1073741825.0 1 4
- 0.5116 4 2 cbr 1000 ------- 2 1.1 1073741825.0 1 4
- 0.5116 4 3 cbr 1000 ------- 3 2.1 1073741826.0 0 6
- 0.5116 4 5 cbr 1000 ------- 3 2.1 1073741826.0 0 6
- 0.5116 4 7 cbr 1000 ------- 3 2.1 1073741826.0 0 6
- 0.5116 4 8 cbr 1000 ------- 3 2.1 1073741826.0 0 6
- 0.5116 0 2 cbr 1000 ------- 2 1.1 1073741825.0 1 4
- 0.5116 0 1 cbr 1000 ------- 3 2.1 1073741826.0 1 7
- 0.5116 1 0 cbr 1000 ------- 3 2.1 1073741826.0 1 7
- 0.5116 4 1 cbr 1000 ------- 3 2.1 1073741826.0 1 7
- 0.5116 5 4 cbr 1000 ------- 3 2.1 1073741826.0 1 7
- 0.5116 5 8 cbr 1000 ------- 3 2.1 1073741826.0 1 7
- 0.5116 5 9 cbr 1000 ------- 3 2.1 1073741826.0 1 7
r 0.5124 0 2 cbr 1000 ------- 1 0.1 1073741824.0 2 2
+ 0.5124 2 1 cbr 1000 ------- 1 0.1 1073741824.0 2 2
+ 0.5124 2 4 cbr 1000 ------- 1 0.1 1073741824.0 2 2
+ 0.5124 2 5 cbr 1000 ------- 1 0.1 1073741824.0 2 2
r 0.5124 0 1 cbr 1000 ------- 1 0.1 1073741824.0 2 2
+ 0.5124 1 2 cbr 1000 ------- 1 0.1 1073741824.0 2 2
+ 0.5124 1 3 cbr 1000 ------- 1 0.1 1073741824.0 2 2
+ 0.5124 1 4 cbr 1000 ------- 1 0.1 1073741824.0 2 2
r 0.5124 1 2 cbr 1000 ------- 2 1.1 1073741825.0 2 5
+ 0.5124 2 0 cbr 1000 ------- 2 1.1 1073741825.0 2 5
+ 0.5124 2 4 cbr 1000 ------- 2 1.1 1073741825.0 2 5
+ 0.5124 2 5 cbr 1000 ------- 2 1.1 1073741825.0 2 5
r 0.5124 1 3 cbr 1000 ------- 2 1.1 1073741825.0 2 5
+ 0.5124 3 4 cbr 1000 ------- 2 1.1 1073741825.0 2 5
+ 0.5124 3 6 cbr 1000 ------- 2 1.1 1073741825.0 2 5
+ 0.5124 3 7 cbr 1000 ------- 2 1.1 1073741825.0 2 5
r 0.5124 1 4 cbr 1000 ------- 2 1.1 1073741825.0 2 5
+ 0.5124 4 2 cbr 1000 ------- 2 1.1 1073741825.0 2 5
+ 0.5124 4 3 cbr 1000 ------- 2 1.1 1073741825.0 2 5
+ 0.5124 4 5 cbr 1000 ------- 2 1.1 1073741825.0 2 5
+ 0.5124 4 7 cbr 1000 ------- 2 1.1 1073741825.0 2 5
+ 0.5124 4 8 cbr 1000 ------- 2 1.1 1073741825.0 2 5
r 0.5124 1 0 cbr 1000 ------- 2 1.1 1073741825.0 2 5
+ 0.5124 0 2 cbr 1000 ------- 2 1.1 1073741825.0 2 5
r 0.5124 2 0 cbr 1000 ------- 3 2.1 1073741826.0 2 8
+ 0.5124 0 1 cbr 1000 ------- 3 2.1 1073741826.0 2 8
r 0.5124 2 1 cbr 1000 ------- 3 2.1 1073741826.0 2 8
+ 0.5124 1 3 cbr 1000 ------- 3 2.1 1073741826.0 2 8
+ 0.5124 1 4 cbr 1000 ------- 3 2.1 1073741826.0 2 8
+ 0.5124 1 0 cbr 1000 ------- 3 2.1 1073741826.0 2 8
r 0.5124 2 4 cbr 1000 ------- 3 2.1 1073741826.0 2 8
+ 0.5124 4 1 cbr 1000 ------- 3 2.1 1073741826.0 2 8
+ 0.5124 4 3 cbr 1000 ------- 3 2.1 1073741826.0 2 8
+ 0.5124 4 5 cbr 1000 ------- 3 2.1 1073741826.0 2 8
+ 0.5124 4 7 cbr 1000 ------- 3 2.1 1073741826.0 2 8
+ 0.5124 4 8 cbr 1000 ------- 3 2.1 1073741826.0 2 8
r 0.5124 2 5 cbr 1000 ------- 3 2.1 1073741826.0 2 8
+ 0.5124 5 4 cbr 1000 ------- 3 2.1 1073741826.0 2 8
+ 0.5124 5 8 cbr 1000 ------- 3 2.1 1073741826.0 2 8
+ 0.5124 5 9 cbr 1000 ------- 3 2.1 1073741826.0 2 8
- 0.5124 2 1 cbr 1000 ------- 1 0.1 1073741824.0 2 2
- 0.5124 2 4 cbr 1000 ------- 1 0.1 1073741824.0 1 1
- 0.5124 2 5 cbr 1000 ------- 1 0.1 1073741824.0 1 1
- 0.5124 1 2 cbr 1000 ------- 1 0.1 1073741824.0 2 2
- 0.5124 1 3 cbr 1000 ------- 1 0.1 1073741824.0 1 1
- 0.5124 1 4 cbr 1000 ------- 1 0.1 1073741824.0 1 1
- 0.5124 2 0 cbr 1000 ------- 2 1.1 1073741825.0 2 5
- 0.5124 3 4 cbr 1000 ------- 2 1.1 1073741825.0 2 5
- 0.5124 3 6 cbr 1000 ------- 2 1.1 1073741825.0 2 5
- 0.5124 3 7 cbr 1000 ------- 2 1.1 1073741825.0 2 5
- 0.5124 4 2 cbr 1000 ------- 2 1.1 1073741825.0 2 5
- 0.5124 4 3 cbr 1000 ------- 2 1.1 1073741825.0 1 4
- 0.5124 4 5 cbr 1000 ------- 2 1.1 1073741825.0 1 4
- 0.5124 4 7 cbr 1000 ------- 2 1.1 1073741825.0 1 4
- 0.5124 4 8 cbr 1000 ------- 2 1.1 1073741825.0 1 4
- 0.5124 0 2 cbr 1000 ------- 2 1.1 1073741825.0 2 5
- 0.5124 0 1 cbr 1000 ------- 3 2.1 1073741826.0 2 8
- 0.5124 1 0 cbr 1000 ------- 3 2.1 1073741826.0 2 8
- 0.5124 4 1 cbr 1000 ------- 3 2.1 1073741826.0 2 8
- 0.5124 5 4 cbr 1000 ------- 3 2.1 1073741826.0 2 8
- 0.5124 5 8 cbr 1000 ------- 3 2.1 1073741826.0 2 8
- 0.5124 5 9 cbr 1000 ------- 3 2.1 1073741826.0 2 8
- 0.5132 2 4 cbr 1000 ------- 2 1.1 1073741825.0 1 4
- 0.5132 2 5 cbr 1000 ------- 2 1.1 1073741825.0 1 4
- 0.5132 1 3 cbr 1000 ------- 3 2.1 1073741826.0 1 7
- 0.5132 1 4 cbr 1000 ------- 3 2.1 1073741826.0 1 7
- 0.5132 4 3 cbr 1000 ------- 3 2.1 1073741826.0 1 7
- 0.5132 4 5 cbr 1000 ------- 3 2.1 1073741826.0 1 7
- 0.5132 4 7 cbr 1000 ------- 3 2.1 1073741826.0 1 7
- 0.5132 4 8 cbr 1000 ------- 3 2.1 1073741826.0 1 7
- 0.514 2 4 cbr 1000 ------- 1 0.1 1073741824.0 2 2
- 0.514 2 5 cbr 1000 ------- 1 0.1 1073741824.0 2 2
- 0.514 1 3 cbr 1000 ------- 1 0.1 1073741824.0 2 2
- 0.514 1 4 cbr 1000 ------- 1 0.1 1073741824.0 2 2
- 0.514 4 3 cbr 1000 ------- 2 1.1 1073741825.0 2 5
- 0.514 4 5 cbr 1000 ------- 2 1.1 1073741825.0 2 5
- 0.514 4 7 cbr 1000 ------- 2 1.1 1073741825.0 2 5
- 0.514 4 8 cbr 1000 ------- 2 1.1 1073741825.0 2 5
- 0.5148 2 4 cbr 1000 ------- 2 1.1 1073741825.0 2 5
- 0.5148 2 5 cbr 1000 ------- 2 1.1 1073741825.0 2 5
- 0.5148 1 3 cbr 1000 ------- 3 2.1 1073741826.0 2 8
- 0.5148 1 4 cbr 1000 ------- 3 2.1 1073741826.0 2 8
- 0.5148 4 3 cbr 1000 ------- 3 2.1 1073741826.0 2 8
- 0.5148 4 5 cbr 1000 ------- 3 2.1 1073741826.0 2 8
- 0.5148 4 7 cbr 1000 ------- 3 2.1 1073741826.0 2 8
- 0.5148 4 8 cbr 1000 ------- 3 2.1 1073741826.0 2 8
r 0.5216 2 1 cbr 1000 ------- 1 0.1 1073741824.0 0 0
+ 0.5216 1 2 prune 80 ------- 30 1.0 2.0 -1 9
- 0.5216 1 2 prune 80 ------- 30 1.0 2.0 -1 9
r 0.5216 2 4 cbr 1000 ------- 1 0.1 1073741824.0 0 0
+ 0.5216 4 2 prune 80 ------- 30 4.0 2.0 -1 10
- 0.5216 4 2 prune 80 ------- 30 4.0 2.0 -1 10
+ 0.5216 4 2 prune 80 ------- 30 4.0 2.0 -1 11
r 0.5216 2 5 cbr 1000 ------- 1 0.1 1073741824.0 0 0
+ 0.5216 5 4 cbr 1000 ------- 1 0.1 1073741824.0 0 0
- 0.5216 5 4 cbr 1000 ------- 1 0.1 1073741824.0 0 0
+ 0.5216 5 8 cbr 1000 ------- 1 0.1 1073741824.0 0 0
- 0.5216 5 8 cbr 1000 ------- 1 0.1 1073741824.0 0 0
+ 0.5216 5 9 cbr 1000 ------- 1 0.1 1073741824.0 0 0
- 0.5216 5 9 cbr 1000 ------- 1 0.1 1073741824.0 0 0
r 0.5216 1 2 cbr 1000 ------- 1 0.1 1073741824.0 0 0
+ 0.5216 2 1 prune 80 ------- 30 2.0 1.0 -1 12
- 0.5216 2 1 prune 80 ------- 30 2.0 1.0 -1 12
r 0.5216 1 3 cbr 1000 ------- 1 0.1 1073741824.0 0 0
+ 0.5216 3 4 cbr 1000 ------- 1 0.1 1073741824.0 0 0
- 0.5216 3 4 cbr 1000 ------- 1 0.1 1073741824.0 0 0
+ 0.5216 3 6 cbr 1000 ------- 1 0.1 1073741824.0 0 0
- 0.5216 3 6 cbr 1000 ------- 1 0.1 1073741824.0 0 0
+ 0.5216 3 7 cbr 1000 ------- 1 0.1 1073741824.0 0 0
- 0.5216 3 7 cbr 1000 ------- 1 0.1 1073741824.0 0 0
r 0.5216 1 4 cbr 1000 ------- 1 0.1 1073741824.0 0 0
+ 0.5216 4 2 cbr 1000 ------- 1 0.1 1073741824.0 0 0
+ 0.5216 4 3 cbr 1000 ------- 1 0.1 1073741824.0 0 0
- 0.5216 4 3 cbr 1000 ------- 1 0.1 1073741824.0 0 0
+ 0.5216 4 5 cbr 1000 ------- 1 0.1 1073741824.0 0 0
- 0.5216 4 5 cbr 1000 ------- 1 0.1 1073741824.0 0 0
+ 0.5216 4 7 cbr 1000 ------- 1 0.1 1073741824.0 0 0
- 0.5216 4 7 cbr 1000 ------- 1 0.1 1073741824.0 0 0
+ 0.5216 4 8 cbr 1000 ------- 1 0.1 1073741824.0 0 0
- 0.5216 4 8 cbr 1000 ------- 1 0.1 1073741824.0 0 0
r 0.5216 2 0 cbr 1000 ------- 2 1.1 1073741825.0 0 3
+ 0.5216 0 2 prune 80 ------- 30 0.0 2.0 -1 13
- 0.5216 0 2 prune 80 ------- 30 0.0 2.0 -1 13
r 0.5216 3 4 cbr 1000 ------- 2 1.1 1073741825.0 0 3
+ 0.5216 4 3 prune 80 ------- 30 4.0 3.0 -1 14
r 0.5216 3 6 cbr 1000 ------- 2 1.1 1073741825.0 0 3
+ 0.5216 6 7 cbr 1000 ------- 2 1.1 1073741825.0 0 3
- 0.5216 6 7 cbr 1000 ------- 2 1.1 1073741825.0 0 3
r 0.5216 3 7 cbr 1000 ------- 2 1.1 1073741825.0 0 3
+ 0.5216 7 4 cbr 1000 ------- 2 1.1 1073741825.0 0 3
- 0.5216 7 4 cbr 1000 ------- 2 1.1 1073741825.0 0 3
+ 0.5216 7 6 cbr 1000 ------- 2 1.1 1073741825.0 0 3
- 0.5216 7 6 cbr 1000 ------- 2 1.1 1073741825.0 0 3
+ 0.5216 7 8 cbr 1000 ------- 2 1.1 1073741825.0 0 3
- 0.5216 7 8 cbr 1000 ------- 2 1.1 1073741825.0 0 3
r 0.5216 4 2 cbr 1000 ------- 2 1.1 1073741825.0 0 3
+ 0.5216 2 4 prune 80 ------- 30 2.0 4.0 -1 15
- 0.5216 2 4 prune 80 ------- 30 2.0 4.0 -1 15
r 0.5216 4 3 cbr 1000 ------- 2 1.1 1073741825.0 0 3
+ 0.5216 3 4 prune 80 ------- 30 3.0 4.0 -1 16
r 0.5216 4 5 cbr 1000 ------- 2 1.1 1073741825.0 0 3
+ 0.5216 5 4 prune 80 ------- 30 5.0 4.0 -1 17
+ 0.5216 5 4 prune 80 ------- 30 5.0 4.0 -1 18
r 0.5216 4 7 cbr 1000 ------- 2 1.1 1073741825.0 0 3
+ 0.5216 7 4 prune 80 ------- 30 7.0 4.0 -1 19
r 0.5216 4 8 cbr 1000 ------- 2 1.1 1073741825.0 0 3
+ 0.5216 8 5 cbr 1000 ------- 2 1.1 1073741825.0 0 3
- 0.5216 8 5 cbr 1000 ------- 2 1.1 1073741825.0 0 3
+ 0.5216 8 7 cbr 1000 ------- 2 1.1 1073741825.0 0 3
- 0.5216 8 7 cbr 1000 ------- 2 1.1 1073741825.0 0 3
+ 0.5216 8 9 cbr 1000 ------- 2 1.1 1073741825.0 0 3
- 0.5216 8 9 cbr 1000 ------- 2 1.1 1073741825.0 0 3
r 0.5216 0 2 cbr 1000 ------- 2 1.1 1073741825.0 0 3
+ 0.5216 2 0 prune 80 ------- 30 2.0 0.0 -1 20
- 0.5216 2 0 prune 80 ------- 30 2.0 0.0 -1 20
r 0.5216 0 1 cbr 1000 ------- 3 2.1 1073741826.0 0 6
+ 0.5216 1 0 prune 80 ------- 30 1.0 0.0 -1 21
- 0.5216 1 0 prune 80 ------- 30 1.0 0.0 -1 21
r 0.5216 1 0 cbr 1000 ------- 3 2.1 1073741826.0 0 6
+ 0.5216 0 1 prune 80 ------- 30 0.0 1.0 -1 22
- 0.5216 0 1 prune 80 ------- 30 0.0 1.0 -1 22
r 0.5216 4 1 cbr 1000 ------- 3 2.1 1073741826.0 0 6
+ 0.5216 1 4 prune 80 ------- 30 1.0 4.0 -1 23
- 0.5216 1 4 prune 80 ------- 30 1.0 4.0 -1 23
r 0.5216 5 4 cbr 1000 ------- 3 2.1 1073741826.0 0 6
+ 0.5216 4 5 prune 80 ------- 30 4.0 5.0 -1 24
r 0.5216 5 8 cbr 1000 ------- 3 2.1 1073741826.0 0 6
+ 0.5216 8 5 prune 80 ------- 30 8.0 5.0 -1 25
+ 0.5216 8 5 prune 80 ------- 30 8.0 5.0 -1 26
r 0.5216 5 9 cbr 1000 ------- 3 2.1 1073741826.0 0 6
+ 0.5216 9 8 cbr 1000 ------- 3 2.1 1073741826.0 0 6
- 0.5216 9 8 cbr 1000 ------- 3 2.1 1073741826.0 0 6
- 0.521664 4 2 prune 80 ------- 30 4.0 2.0 -1 11
- 0.521728 4 2 cbr 1000 ------- 1 0.1 1073741824.0 0 0
r 0.5224 2 1 cbr 1000 ------- 1 0.1 1073741824.0 1 1
+ 0.5224 1 2 prune 80 ------- 30 1.0 2.0 -1 27
- 0.5224 1 2 prune 80 ------- 30 1.0 2.0 -1 27
r 0.5224 2 4 cbr 1000 ------- 2 1.1 1073741825.0 0 3
+ 0.5224 4 2 prune 80 ------- 30 4.0 2.0 -1 28
r 0.5224 2 5 cbr 1000 ------- 2 1.1 1073741825.0 0 3
+ 0.5224 5 4 cbr 1000 ------- 2 1.1 1073741825.0 0 3
+ 0.5224 5 8 cbr 1000 ------- 2 1.1 1073741825.0 0 3
+ 0.5224 5 9 cbr 1000 ------- 2 1.1 1073741825.0 0 3
r 0.5224 1 2 cbr 1000 ------- 1 0.1 1073741824.0 1 1
+ 0.5224 2 1 prune 80 ------- 30 2.0 1.0 -1 29
- 0.5224 2 1 prune 80 ------- 30 2.0 1.0 -1 29
r 0.5224 1 3 cbr 1000 ------- 3 2.1 1073741826.0 0 6
+ 0.5224 3 4 cbr 1000 ------- 3 2.1 1073741826.0 0 6
+ 0.5224 3 6 cbr 1000 ------- 3 2.1 1073741826.0 0 6
+ 0.5224 3 7 cbr 1000 ------- 3 2.1 1073741826.0 0 6
r 0.5224 1 4 cbr 1000 ------- 3 2.1 1073741826.0 0 6
+ 0.5224 4 1 prune 80 ------- 30 4.0 1.0 -1 30
- 0.5224 4 1 prune 80 ------- 30 4.0 1.0 -1 30
r 0.5224 2 0 cbr 1000 ------- 2 1.1 1073741825.0 1 4
+ 0.5224 0 2 prune 80 ------- 30 0.0 2.0 -1 31
- 0.5224 0 2 prune 80 ------- 30 0.0 2.0 -1 31
r 0.5224 3 4 cbr 1000 ------- 2 1.1 1073741825.0 1 4
+ 0.5224 4 3 prune 80 ------- 30 4.0 3.0 -1 32
r 0.5224 3 6 cbr 1000 ------- 2 1.1 1073741825.0 1 4
+ 0.5224 6 7 cbr 1000 ------- 2 1.1 1073741825.0 1 4
r 0.5224 3 7 cbr 1000 ------- 2 1.1 1073741825.0 1 4
+ 0.5224 7 4 cbr 1000 ------- 2 1.1 1073741825.0 1 4
+ 0.5224 7 6 cbr 1000 ------- 2 1.1 1073741825.0 1 4
+ 0.5224 7 8 cbr 1000 ------- 2 1.1 1073741825.0 1 4
r 0.5224 4 2 cbr 1000 ------- 2 1.1 1073741825.0 1 4
+ 0.5224 2 4 prune 80 ------- 30 2.0 4.0 -1 33
- 0.5224 2 4 prune 80 ------- 30 2.0 4.0 -1 33
r 0.5224 4 3 cbr 1000 ------- 3 2.1 1073741826.0 0 6
+ 0.5224 3 4 prune 80 ------- 30 3.0 4.0 -1 34
r 0.5224 4 5 cbr 1000 ------- 3 2.1 1073741826.0 0 6
+ 0.5224 5 4 prune 80 ------- 30 5.0 4.0 -1 35
r 0.5224 4 7 cbr 1000 ------- 3 2.1 1073741826.0 0 6
+ 0.5224 7 3 cbr 1000 ------- 3 2.1 1073741826.0 0 6
- 0.5224 7 3 cbr 1000 ------- 3 2.1 1073741826.0 0 6
+ 0.5224 7 6 cbr 1000 ------- 3 2.1 1073741826.0 0 6
+ 0.5224 7 8 cbr 1000 ------- 3 2.1 1073741826.0 0 6
r 0.5224 4 8 cbr 1000 ------- 3 2.1 1073741826.0 0 6
+ 0.5224 8 5 cbr 1000 ------- 3 2.1 1073741826.0 0 6
+ 0.5224 8 7 cbr 1000 ------- 3 2.1 1073741826.0 0 6
+ 0.5224 8 9 cbr 1000 ------- 3 2.1 1073741826.0 0 6
r 0.5224 0 2 cbr 1000 ------- 2 1.1 1073741825.0 1 4
+ 0.5224 2 0 prune 80 ------- 30 2.0 0.0 -1 36
- 0.5224 2 0 prune 80 ------- 30 2.0 0.0 -1 36
r 0.5224 0 1 cbr 1000 ------- 3 2.1 1073741826.0 1 7
+ 0.5224 1 0 prune 80 ------- 30 1.0 0.0 -1 37
- 0.5224 1 0 prune 80 ------- 30 1.0 0.0 -1 37
r 0.5224 1 0 cbr 1000 ------- 3 2.1 1073741826.0 1 7
+ 0.5224 0 1 prune 80 ------- 30 0.0 1.0 -1 38
- 0.5224 0 1 prune 80 ------- 30 0.0 1.0 -1 38
r 0.5224 4 1 cbr 1000 ------- 3 2.1 1073741826.0 1 7
+ 0.5224 1 4 prune 80 ------- 30 1.0 4.0 -1 39
- 0.5224 1 4 prune 80 ------- 30 1.0 4.0 -1 39
r 0.5224 5 4 cbr 1000 ------- 3 2.1 1073741826.0 1 7
+ 0.5224 4 5 prune 80 ------- 30 4.0 5.0 -1 40
r 0.5224 5 8 cbr 1000 ------- 3 2.1 1073741826.0 1 7
+ 0.5224 8 5 prune 80 ------- 30 8.0 5.0 -1 41
r 0.5224 5 9 cbr 1000 ------- 3 2.1 1073741826.0 1 7
+ 0.5224 9 8 cbr 1000 ------- 3 2.1 1073741826.0 1 7
- 0.5224 5 4 prune 80 ------- 30 5.0 4.0 -1 17
- 0.5224 5 8 cbr 1000 ------- 2 1.1 1073741825.0 0 3
- 0.5224 5 9 cbr 1000 ------- 2 1.1 1073741825.0 0 3
- 0.5224 3 4 prune 80 ------- 30 3.0 4.0 -1 16
- 0.5224 3 6 cbr 1000 ------- 3 2.1 1073741826.0 0 6
- 0.5224 3 7 cbr 1000 ------- 3 2.1 1073741826.0 0 6
- 0.5224 4 3 prune 80 ------- 30 4.0 3.0 -1 14
- 0.5224 4 5 prune 80 ------- 30 4.0 5.0 -1 24
- 0.5224 6 7 cbr 1000 ------- 2 1.1 1073741825.0 1 4
- 0.5224 7 4 prune 80 ------- 30 7.0 4.0 -1 19
- 0.5224 7 6 cbr 1000 ------- 2 1.1 1073741825.0 1 4
- 0.5224 7 8 cbr 1000 ------- 2 1.1 1073741825.0 1 4
- 0.5224 8 5 prune 80 ------- 30 8.0 5.0 -1 25
- 0.5224 8 7 cbr 1000 ------- 3 2.1 1073741826.0 0 6
- 0.5224 8 9 cbr 1000 ------- 3 2.1 1073741826.0 0 6
- 0.5224 9 8 cbr 1000 ------- 3 2.1 1073741826.0 1 7
- 0.522464 5 4 prune 80 ------- 30 5.0 4.0 -1 18
- 0.522464 3 4 cbr 1000 ------- 3 2.1 1073741826.0 0 6
- 0.522464 4 3 prune 80 ------- 30 4.0 3.0 -1 32
- 0.522464 4 5 prune 80 ------- 30 4.0 5.0 -1 40
- 0.522464 7 4 cbr 1000 ------- 2 1.1 1073741825.0 1 4
- 0.522464 8 5 prune 80 ------- 30 8.0 5.0 -1 26
- 0.522528 4 2 prune 80 ------- 30 4.0 2.0 -1 28
- 0.522528 5 4 cbr 1000 ------- 2 1.1 1073741825.0 0 3
- 0.522528 8 5 cbr 1000 ------- 3 2.1 1073741826.0 0 6
r 0.5232 2 1 cbr 1000 ------- 1 0.1 1073741824.0 2 2
+ 0.5232 1 2 prune 80 ------- 30 1.0 2.0 -1 42
- 0.5232 1 2 prune 80 ------- 30 1.0 2.0 -1 42
r 0.5232 2 4 cbr 1000 ------- 1 0.1 1073741824.0 1 1
+ 0.5232 4 2 prune 80 ------- 30 4.0 2.0 -1 43
- 0.5232 4 2 prune 80 ------- 30 4.0 2.0 -1 43
r 0.5232 2 5 cbr 1000 ------- 1 0.1 1073741824.0 1 1
+ 0.5232 5 4 cbr 1000 ------- 1 0.1 1073741824.0 1 1
+ 0.5232 5 8 cbr 1000 ------- 1 0.1 1073741824.0 1 1
+ 0.5232 5 9 cbr 1000 ------- 1 0.1 1073741824.0 1 1
r 0.5232 1 2 cbr 1000 ------- 1 0.1 1073741824.0 2 2
+ 0.5232 2 1 prune 80 ------- 30 2.0 1.0 -1 44
- 0.5232 2 1 prune 80 ------- 30 2.0 1.0 -1 44
r 0.5232 1 3 cbr 1000 ------- 1 0.1 1073741824.0 1 1
+ 0.5232 3 4 cbr 1000 ------- 1 0.1 1073741824.0 1 1
+ 0.5232 3 6 cbr 1000 ------- 1 0.1 1073741824.0 1 1
+ 0.5232 3 7 cbr 1000 ------- 1 0.1 1073741824.0 1 1
r 0.5232 1 4 cbr 1000 ------- 1 0.1 1073741824.0 1 1
+ 0.5232 4 2 cbr 1000 ------- 1 0.1 1073741824.0 1 1
+ 0.5232 4 3 cbr 1000 ------- 1 0.1 1073741824.0 1 1
- 0.5232 4 3 cbr 1000 ------- 1 0.1 1073741824.0 1 1
+ 0.5232 4 5 cbr 1000 ------- 1 0.1 1073741824.0 1 1
- 0.5232 4 5 cbr 1000 ------- 1 0.1 1073741824.0 1 1
+ 0.5232 4 7 cbr 1000 ------- 1 0.1 1073741824.0 1 1
- 0.5232 4 7 cbr 1000 ------- 1 0.1 1073741824.0 1 1
+ 0.5232 4 8 cbr 1000 ------- 1 0.1 1073741824.0 1 1
- 0.5232 4 8 cbr 1000 ------- 1 0.1 1073741824.0 1 1
r 0.5232 2 0 cbr 1000 ------- 2 1.1 1073741825.0 2 5
+ 0.5232 0 2 prune 80 ------- 30 0.0 2.0 -1 45
- 0.5232 0 2 prune 80 ------- 30 0.0 2.0 -1 45
r 0.5232 3 4 cbr 1000 ------- 2 1.1 1073741825.0 2 5
+ 0.5232 4 3 prune 80 ------- 30 4.0 3.0 -1 46
r 0.5232 3 6 cbr 1000 ------- 2 1.1 1073741825.0 2 5
+ 0.5232 6 7 cbr 1000 ------- 2 1.1 1073741825.0 2 5
r 0.5232 3 7 cbr 1000 ------- 2 1.1 1073741825.0 2 5
+ 0.5232 7 4 cbr 1000 ------- 2 1.1 1073741825.0 2 5
+ 0.5232 7 6 cbr 1000 ------- 2 1.1 1073741825.0 2 5
+ 0.5232 7 8 cbr 1000 ------- 2 1.1 1073741825.0 2 5
r 0.5232 4 2 cbr 1000 ------- 2 1.1 1073741825.0 2 5
+ 0.5232 2 4 prune 80 ------- 30 2.0 4.0 -1 47
- 0.5232 2 4 prune 80 ------- 30 2.0 4.0 -1 47
r 0.5232 4 3 cbr 1000 ------- 2 1.1 1073741825.0 1 4
+ 0.5232 3 4 prune 80 ------- 30 3.0 4.0 -1 48
r 0.5232 4 5 cbr 1000 ------- 2 1.1 1073741825.0 1 4
+ 0.5232 5 4 prune 80 ------- 30 5.0 4.0 -1 49
r 0.5232 4 7 cbr 1000 ------- 2 1.1 1073741825.0 1 4
+ 0.5232 7 4 prune 80 ------- 30 7.0 4.0 -1 50
r 0.5232 4 8 cbr 1000 ------- 2 1.1 1073741825.0 1 4
+ 0.5232 8 5 cbr 1000 ------- 2 1.1 1073741825.0 1 4
+ 0.5232 8 7 cbr 1000 ------- 2 1.1 1073741825.0 1 4
+ 0.5232 8 9 cbr 1000 ------- 2 1.1 1073741825.0 1 4
r 0.5232 0 2 cbr 1000 ------- 2 1.1 1073741825.0 2 5
+ 0.5232 2 0 prune 80 ------- 30 2.0 0.0 -1 51
- 0.5232 2 0 prune 80 ------- 30 2.0 0.0 -1 51
r 0.5232 0 1 cbr 1000 ------- 3 2.1 1073741826.0 2 8
+ 0.5232 1 0 prune 80 ------- 30 1.0 0.0 -1 52
- 0.5232 1 0 prune 80 ------- 30 1.0 0.0 -1 52
r 0.5232 1 0 cbr 1000 ------- 3 2.1 1073741826.0 2 8
+ 0.5232 0 1 prune 80 ------- 30 0.0 1.0 -1 53
- 0.5232 0 1 prune 80 ------- 30 0.0 1.0 -1 53
r 0.5232 4 1 cbr 1000 ------- 3 2.1 1073741826.0 2 8
+ 0.5232 1 4 prune 80 ------- 30 1.0 4.0 -1 54
- 0.5232 1 4 prune 80 ------- 30 1.0 4.0 -1 54
r 0.5232 5 4 cbr 1000 ------- 3 2.1 1073741826.0 2 8
+ 0.5232 4 5 prune 80 ------- 30 4.0 5.0 -1 55
r 0.5232 5 8 cbr 1000 ------- 3 2.1 1073741826.0 2 8
+ 0.5232 8 5 prune 80 ------- 30 8.0 5.0 -1 56
r 0.5232 5 9 cbr 1000 ------- 3 2.1 1073741826.0 2 8
+ 0.5232 9 8 cbr 1000 ------- 3 2.1 1073741826.0 2 8
- 0.5232 5 8 cbr 1000 ------- 1 0.1 1073741824.0 1 1
- 0.5232 5 9 cbr 1000 ------- 1 0.1 1073741824.0 1 1
- 0.5232 3 6 cbr 1000 ------- 1 0.1 1073741824.0 1 1
- 0.5232 3 7 cbr 1000 ------- 1 0.1 1073741824.0 1 1
- 0.5232 6 7 cbr 1000 ------- 2 1.1 1073741825.0 2 5
- 0.5232 7 6 cbr 1000 ------- 3 2.1 1073741826.0 0 6
- 0.5232 7 8 cbr 1000 ------- 3 2.1 1073741826.0 0 6
- 0.5232 8 7 cbr 1000 ------- 2 1.1 1073741825.0 1 4
- 0.5232 8 9 cbr 1000 ------- 2 1.1 1073741825.0 1 4
- 0.5232 9 8 cbr 1000 ------- 3 2.1 1073741826.0 2 8
- 0.523264 3 4 prune 80 ------- 30 3.0 4.0 -1 34
- 0.523264 7 4 cbr 1000 ------- 2 1.1 1073741825.0 2 5
- 0.523264 4 2 cbr 1000 ------- 1 0.1 1073741824.0 1 1
- 0.523328 5 4 prune 80 ------- 30 5.0 4.0 -1 35
- 0.523328 8 5 prune 80 ------- 30 8.0 5.0 -1 41
- 0.523328 3 4 cbr 1000 ------- 1 0.1 1073741824.0 1 1
- 0.523392 5 4 cbr 1000 ------- 1 0.1 1073741824.0 1 1
- 0.523392 8 5 cbr 1000 ------- 2 1.1 1073741825.0 1 4
r 0.524 2 4 cbr 1000 ------- 2 1.1 1073741825.0 1 4
+ 0.524 4 2 prune 80 ------- 30 4.0 2.0 -1 57
r 0.524 2 5 cbr 1000 ------- 2 1.1 1073741825.0 1 4
+ 0.524 5 4 cbr 1000 ------- 2 1.1 1073741825.0 1 4
+ 0.524 5 8 cbr 1000 ------- 2 1.1 1073741825.0 1 4
+ 0.524 5 9 cbr 1000 ------- 2 1.1 1073741825.0 1 4
r 0.524 1 3 cbr 1000 ------- 3 2.1 1073741826.0 1 7
+ 0.524 3 4 cbr 1000 ------- 3 2.1 1073741826.0 1 7
+ 0.524 3 6 cbr 1000 ------- 3 2.1 1073741826.0 1 7
+ 0.524 3 7 cbr 1000 ------- 3 2.1 1073741826.0 1 7
r 0.524 1 4 cbr 1000 ------- 3 2.1 1073741826.0 1 7
+ 0.524 4 1 prune 80 ------- 30 4.0 1.0 -1 58
- 0.524 4 1 prune 80 ------- 30 4.0 1.0 -1 58
r 0.524 4 3 cbr 1000 ------- 3 2.1 1073741826.0 1 7
+ 0.524 3 4 prune 80 ------- 30 3.0 4.0 -1 59
r 0.524 4 5 cbr 1000 ------- 3 2.1 1073741826.0 1 7
+ 0.524 5 4 prune 80 ------- 30 5.0 4.0 -1 60
r 0.524 4 7 cbr 1000 ------- 3 2.1 1073741826.0 1 7
+ 0.524 7 3 cbr 1000 ------- 3 2.1 1073741826.0 1 7
- 0.524 7 3 cbr 1000 ------- 3 2.1 1073741826.0 1 7
+ 0.524 7 6 cbr 1000 ------- 3 2.1 1073741826.0 1 7
+ 0.524 7 8 cbr 1000 ------- 3 2.1 1073741826.0 1 7
r 0.524 4 8 cbr 1000 ------- 3 2.1 1073741826.0 1 7
+ 0.524 8 5 cbr 1000 ------- 3 2.1 1073741826.0 1 7
+ 0.524 8 7 cbr 1000 ------- 3 2.1 1073741826.0 1 7
+ 0.524 8 9 cbr 1000 ------- 3 2.1 1073741826.0 1 7
- 0.524 4 3 prune 80 ------- 30 4.0 3.0 -1 46
- 0.524 4 5 prune 80 ------- 30 4.0 5.0 -1 55
- 0.524 5 8 cbr 1000 ------- 2 1.1 1073741825.0 1 4
- 0.524 5 9 cbr 1000 ------- 2 1.1 1073741825.0 1 4
- 0.524 3 6 cbr 1000 ------- 3 2.1 1073741826.0 1 7
- 0.524 3 7 cbr 1000 ------- 3 2.1 1073741826.0 1 7
- 0.524 7 6 cbr 1000 ------- 2 1.1 1073741825.0 2 5
- 0.524 7 8 cbr 1000 ------- 2 1.1 1073741825.0 2 5
- 0.524 8 7 cbr 1000 ------- 3 2.1 1073741826.0 1 7
- 0.524 8 9 cbr 1000 ------- 3 2.1 1073741826.0 1 7
- 0.524064 7 4 prune 80 ------- 30 7.0 4.0 -1 50
- 0.524064 4 2 prune 80 ------- 30 4.0 2.0 -1 57
- 0.524128 3 4 prune 80 ------- 30 3.0 4.0 -1 48
- 0.524192 5 4 prune 80 ------- 30 5.0 4.0 -1 49
- 0.524192 8 5 prune 80 ------- 30 8.0 5.0 -1 56
- 0.524192 3 4 cbr 1000 ------- 3 2.1 1073741826.0 1 7
- 0.524256 5 4 cbr 1000 ------- 2 1.1 1073741825.0 1 4
- 0.524256 8 5 cbr 1000 ------- 3 2.1 1073741826.0 1 7
r 0.5248 2 4 cbr 1000 ------- 1 0.1 1073741824.0 2 2