V -t * -v 1.0a5 -a 0
A -t * -n 1 -p 0 -o 0x7fffffff -c 30 -a 1
A -t * -h 1 -m 1073741823 -s 0
c -t * -i 31 -n green
c -t * -i 1 -n gold
c -t * -i 2 -n cyan
c -t * -i 30 -n purple
c -t * -i 3 -n magenta
n -t * -a 0 -s 0 -S UP -v circle -c black -i black
n -t * -a 1 -s 1 -S UP -v circle -c black -i black
n -t * -a 2 -s 2 -S UP -v circle -c black -i black
n -t * -a 3 -s 3 -S UP -v circle -c black -i black
n -t * -a 4 -s 4 -S UP -v circle -c black -i black
n -t * -a 5 -s 5 -S UP -v circle -c black -i black
n -t * -a 6 -s 6 -S UP -v circle -c black -i black
n -t * -a 7 -s 7 -S UP -v circle -c black -i black
n -t * -a 8 -s 8 -S UP -v circle -c black -i black
n -t * -a 9 -s 9 -S UP -v circle -c black -i black
n -t * -a 10 -s 10 -S UP -v circle -c black -i black
n -t * -a 11 -s 11 -S UP -v circle -c black -i black
n -t * -a 12 -s 12 -S UP -v circle -c black -i black
n -t * -a 13 -s 13 -S UP -v circle -c black -i black
n -t * -a 14 -s 14 -S UP -v circle -c black -i black
l -t * -s 0 -d 1 -S UP -r 10000000 -D 0.01 -c black -o left-down
l -t * -s 0 -d 2 -S UP -r 10000000 -D 0.01 -c black -o right-down
l -t * -s 1 -d 2 -S UP -r 10000000 -D 0.01 -c black -o right
l -t * -s 1 -d 3 -S UP -r 10000000 -D 0.01 -c black -o left-down
l -t * -s 1 -d 4 -S UP -r 10000000 -D 0.01 -c black -o right-down
l -t * -s 2 -d 4 -S UP -r 10000000 -D 0.01 -c black -o left-down
l -t * -s 2 -d 5 -S UP -r 10000000 -D 0.01 -c black -o right-down
l -t * -s 3 -d 4 -S UP -r 10000000 -D 0.01 -c black -o right
l -t * -s 4 -d 5 -S UP -r 10000000 -D 0.01 -c black -o right
l -t * -s 3 -d 6 -S UP -r 10000000 -D 0.01 -c black -o left-down
l -t * -s 3 -d 7 -S UP -r 10000000 -D 0.01 -c black -o right-down
l -t * -s 4 -d 7 -S UP -r 10000000 -D 0.01 -c black -o left-down
l -t * -s 4 -d 8 -S UP -r 10000000 -D 0.01 -c black -o right-down
l -t * -s 5 -d 8 -S UP -r 10000000 -D 0.01 -c black -o left-down
l -t * -s 5 -d 9 -S UP -r 10000000 -D 0.01 -c black -o right-down
l -t * -s 6 -d 7 -S UP -r 10000000 -D 0.01 -c black -o right
l -t * -s 7 -d 8 -S UP -r 10000000 -D 0.01 -c black -o right
l -t * -s 8 -d 9 -S UP -r 10000000 -D 0.01 -c black -o right
l -t * -s 6 -d 10 -S UP -r 10000000 -D 0.01 -c black -o left-down
l -t * -s 6 -d 11 -S UP -r 10000000 -D 0.01 -c black -o right-down
l -t * -s 10 -d 11 -S UP -r 10000000 -D 0.01 -c black -o right
l -t * -s 7 -d 11 -S UP -r 10000000 -D 0.01 -c black -o left-down
l -t * -s 7 -d 12 -S UP -r 10000000 -D 0.01 -c black -o right-down
l -t * -s 11 -d 12 -S UP -r 10000000 -D 0.01 -c black -o right
l -t * -s 8 -d 12 -S UP -r 10000000 -D 0.01 -c black -o left-down
l -t * -s 8 -d 13 -S UP -r 10000000 -D 0.01 -c black -o right-down
l -t * -s 12 -d 13 -S UP -r 10000000 -D 0.01 -c black -o right
l -t * -s 9 -d 13 -S UP -r 10000000 -D 0.01 -c black -o left-down
l -t * -s 9 -d 14 -S UP -r 10000000 -D 0.01 -c black -o right-down
l -t * -s 13 -d 14 -S UP -r 10000000 -D 0.01 -c black -o right
n -t 0 -s 0 -S DLABEL -l "source1" -L ""
n -t 0 -s 1 -S DLABEL -l "source2" -L ""
n -t 0 -s 2 -S DLABEL -l "source3" -L ""
n -t 0 -s 3 -S DLABEL -l "RP-G1" -L ""
n -t 0 -s 4 -S DLABEL -l "RP-G2" -L ""
n -t 0 -s 5 -S DLABEL -l "RP-G3" -L ""
+ -t 0.5 -s 0 -d 1 -p cbr -e 1000 -c 1 -i 0 -a 1 -x {0.1 1073741824.0 0 ------- null}
- -t 0.5 -s 0 -d 1 -p cbr -e 1000 -c 1 -i 0 -a 1 -x {0.1 1073741824.0 0 ------- null}
h -t 0.5 -s 0 -d 1 -p cbr -e 1000 -c 1 -i 0 -a 1 -x {0.1 1073741824.0 -1 ------- null}
+ -t 0.5 -s 0 -d 1 -p cbr -e 1000 -c 1 -i 1 -a 1 -x {0.1 1073741824.0 1 ------- null}
+ -t 0.5 -s 0 -d 1 -p cbr -e 1000 -c 1 -i 2 -a 1 -x {0.1 1073741824.0 2 ------- null}
+ -t 0.5 -s 1 -d 4 -p cbr -e 1000 -c 2 -i 3 -a 2 -x {1.1 1073741825.0 0 ------- null}
- -t 0.5 -s 1 -d 4 -p cbr -e 1000 -c 2 -i 3 -a 2 -x {1.1 1073741825.0 0 ------- null}
h -t 0.5 -s 1 -d 4 -p cbr -e 1000 -c 2 -i 3 -a 2 -x {1.1 1073741825.0 -1 ------- null}
+ -t 0.5 -s 1 -d 4 -p cbr -e 1000 -c 2 -i 4 -a 2 -x {1.1 1073741825.0 1 ------- null}
+ -t 0.5 -s 1 -d 4 -p cbr -e 1000 -c 2 -i 5 -a 2 -x {1.1 1073741825.0 2 ------- null}
+ -t 0.5 -s 2 -d 5 -p cbr -e 1000 -c 3 -i 6 -a 3 -x {2.1 1073741826.0 0 ------- null}
- -t 0.5 -s 2 -d 5 -p cbr -e 1000 -c 3 -i 6 -a 3 -x {2.1 1073741826.0 0 ------- null}
h -t 0.5 -s 2 -d 5 -p cbr -e 1000 -c 3 -i 6 -a 3 -x {2.1 1073741826.0 -1 ------- null}
+ -t 0.5 -s 2 -d 5 -p cbr -e 1000 -c 3 -i 7 -a 3 -x {2.1 1073741826.0 1 ------- null}
+ -t 0.5 -s 2 -d 5 -p cbr -e 1000 -c 3 -i 8 -a 3 -x {2.1 1073741826.0 2 ------- null}
- -t 0.5008 -s 0 -d 1 -p cbr -e 1000 -c 1 -i 1 -a 1 -x {0.1 1073741824.0 1 ------- null}
h -t 0.5008 -s 0 -d 1 -p cbr -e 1000 -c 1 -i 1 -a 1 -x {0.1 1073741824.0 -1 ------- null}
- -t 0.5008 -s 1 -d 4 -p cbr -e 1000 -c 2 -i 4 -a 2 -x {1.1 1073741825.0 1 ------- null}
h -t 0.5008 -s 1 -d 4 -p cbr -e 1000 -c 2 -i 4 -a 2 -x {1.1 1073741825.0 -1 ------- null}
- -t 0.5008 -s 2 -d 5 -p cbr -e 1000 -c 3 -i 7 -a 3 -x {2.1 1073741826.0 1 ------- null}
h -t 0.5008 -s 2 -d 5 -p cbr -e 1000 -c 3 -i 7 -a 3 -x {2.1 1073741826.0 -1 ------- null}
- -t 0.5016 -s 0 -d 1 -p cbr -e 1000 -c 1 -i 2 -a 1 -x {0.1 1073741824.0 2 ------- null}
h -t 0.5016 -s 0 -d 1 -p cbr -e 1000 -c 1 -i 2 -a 1 -x {0.1 1073741824.0 -1 ------- null}
- -t 0.5016 -s 1 -d 4 -p cbr -e 1000 -c 2 -i 5 -a 2 -x {1.1 1073741825.0 2 ------- null}
h -t 0.5016 -s 1 -d 4 -p cbr -e 1000 -c 2 -i 5 -a 2 -x {1.1 1073741825.0 -1 ------- null}
- -t 0.5016 -s 2 -d 5 -p cbr -e 1000 -c 3 -i 8 -a 3 -x {2.1 1073741826.0 2 ------- null}
h -t 0.5016 -s 2 -d 5 -p cbr -e 1000 -c 3 -i 8 -a 3 -x {2.1 1073741826.0 -1 ------- null}
r -t 0.5108 -s 0 -d 1 -p cbr -e 1000 -c 1 -i 0 -a 1 -x {0.1 1073741824.0 0 ------- null}
+ -t 0.5108 -s 1 -d 3 -p cbr -e 1000 -c 1 -i 0 -a 1 -x {0.1 1073741824.0 0 ------- null}
- -t 0.5108 -s 1 -d 3 -p cbr -e 1000 -c 1 -i 0 -a 1 -x {0.1 1073741824.0 0 ------- null}
h -t 0.5108 -s 1 -d 3 -p cbr -e 1000 -c 1 -i 0 -a 1 -x {0.1 1073741824.0 -1 ------- null}
r -t 0.5108 -s 1 -d 4 -p cbr -e 1000 -c 2 -i 3 -a 2 -x {1.1 1073741825.0 0 ------- null}
r -t 0.5108 -s 2 -d 5 -p cbr -e 1000 -c 3 -i 6 -a 3 -x {2.1 1073741826.0 0 ------- null}
r -t 0.5116 -s 0 -d 1 -p cbr -e 1000 -c 1 -i 1 -a 1 -x {0.1 1073741824.0 1 ------- null}
+ -t 0.5116 -s 1 -d 3 -p cbr -e 1000 -c 1 -i 1 -a 1 -x {0.1 1073741824.0 1 ------- null}
r -t 0.5116 -s 1 -d 4 -p cbr -e 1000 -c 2 -i 4 -a 2 -x {1.1 1073741825.0 1 ------- null}
r -t 0.5116 -s 2 -d 5 -p cbr -e 1000 -c 3 -i 7 -a 3 -x {2.1 1073741826.0 1 ------- null}
- -t 0.5116 -s 1 -d 3 -p cbr -e 1000 -c 1 -i 1 -a 1 -x {0.1 1073741824.0 1 ------- null}
h -t 0.5116 -s 1 -d 3 -p cbr -e 1000 -c 1 -i 1 -a 1 -x {0.1 1073741824.0 -1 ------- null}
r -t 0.5124 -s 0 -d 1 -p cbr -e 1000 -c 1 -i 2 -a 1 -x {0.1 1073741824.0 2 ------- null}
+ -t 0.5124 -s 1 -d 3 -p cbr -e 1000 -c 1 -i 2 -a 1 -x {0.1 1073741824.0 2 ------- null}
r -t 0.5124 -s 1 -d 4 -p cbr -e 1000 -c 2 -i 5 -a 2 -x {1.1 1073741825.0 2 ------- null}
r -t 0.5124 -s 2 -d 5 -p cbr -e 1000 -c 3 -i 8 -a 3 -x {2.1 1073741826.0 2 ------- null}
- -t 0.5124 -s 1 -d 3 -p cbr -e 1000 -c 1 -i 2 -a 1 -x {0.1 1073741824.0 2 ------- null}
h -t 0.5124 -s 1 -d 3 -p cbr -e 1000 -c 1 -i 2 -a 1 -x {0.1 1073741824.0 -1 ------- null}
r -t 0.5216 -s 1 -d 3 -p cbr -e 1000 -c 1 -i 0 -a 1 -x {0.1 1073741824.0 0 ------- null}
r -t 0.5224 -s 1 -d 3 -p cbr -e 1000 -c 1 -i 1 -a 1 -x {0.1 1073741824.0 1 ------- null}
r -t 0.5232 -s 1 -d 3 -p cbr -e 1000 -c 1 -i 2 -a 1 -x {0.1 1073741824.0 2 ------- null}
+ -t 0.553571428571429 -s 0 -d 1 -p cbr -e 1000 -c 1 -i 9 -a 1 -x {0.1 1073741824.0 3 ------- null}
- -t 0.553571428571429 -s 0 -d 1 -p cbr -e 1000 -c 1 -i 9 -a 1 -x {0.1 1073741824.0 3 ------- null}
h -t 0.553571428571429 -s 0 -d 1 -p cbr -e 1000 -c 1 -i 9 -a 1 -x {0.1 1073741824.0 -1 ------- null}
+ -t 0.553571428571429 -s 0 -d 1 -p cbr -e 1000 -c 1 -i 10 -a 1 -x {0.1 1073741824.0 4 ------- null}
+ -t 0.553571428571429 -s 0 -d 1 -p cbr -e 1000 -c 1 -i 11 -a 1 -x {0.1 1073741824.0 5 ------- null}
+ -t 0.553571428571429 -s 1 -d 4 -p cbr -e 1000 -c 2 -i 12 -a 2 -x {1.1 1073741825.0 3 ------- null}
- -t 0.553571428571429 -s 1 -d 4 -p cbr -e 1000 -c 2 -i 12 -a 2 -x {1.1 1073741825.0 3 ------- null}
h -t 0.553571428571429 -s 1 -d 4 -p cbr -e 1000 -c 2 -i 12 -a 2 -x {1.1 1073741825.0 -1 ------- null}
+ -t 0.553571428571429 -s 1 -d 4 -p cbr -e 1000 -c 2 -i 13 -a 2 -x {1.1 1073741825.0 4 ------- null}
+ -t 0.553571428571429 -s 1 -d 4 -p cbr -e 1000 -c 2 -i 14 -a 2 -x {1.1 1073741825.0 5 ------- null}
+ -t 0.553571428571429 -s 2 -d 5 -p cbr -e 1000 -c 3 -i 15 -a 3 -x {2.1 1073741826.0 3 ------- null}
- -t 0.553571428571429 -s 2 -d 5 -p cbr -e 1000 -c 3 -i 15 -a 3 -x {2.1 1073741826.0 3 ------- null}
h -t 0.553571428571429 -s 2 -d 5 -p cbr -e 1000 -c 3 -i 15 -a 3 -x {2.1 1073741826.0 -1 ------- null}
+ -t 0.553571428571429 -s 2 -d 5 -p cbr -e 1000 -c 3 -i 16 -a 3 -x {2.1 1073741826.0 4 ------- null}
+ -t 0.553571428571429 -s 2 -d 5 -p cbr -e 1000 -c 3 -i 17 -a 3 -x {2.1 1073741826.0 5 ------- null}
- -t 0.554371428571429 -s 0 -d 1 -p cbr -e 1000 -c 1 -i 10 -a 1 -x {0.1 1073741824.0 4 ------- null}
h -t 0.554371428571429 -s 0 -d 1 -p cbr -e 1000 -c 1 -i 10 -a 1 -x {0.1 1073741824.0 -1 ------- null}
- -t 0.554371428571429 -s 1 -d 4 -p cbr -e 1000 -c 2 -i 13 -a 2 -x {1.1 1073741825.0 4 ------- null}
h -t 0.554371428571429 -s 1 -d 4 -p cbr -e 1000 -c 2 -i 13 -a 2 -x {1.1 1073741825.0 -1 ------- null}
- -t 0.554371428571429 -s 2 -d 5 -p cbr -e 1000 -c 3 -i 16 -a 3 -x {2.1 1073741826.0 4 ------- null}
h -t 0.554371428571429 -s 2 -d 5 -p cbr -e 1000 -c 3 -i 16 -a 3 -x {2.1 1073741826.0 -1 ------- null}
- -t 0.555171428571429 -s 0 -d 1 -p cbr -e 1000 -c 1 -i 11 -a 1 -x {0.1 1073741824.0 5 ------- null}
h -t 0.555171428571429 -s 0 -d 1 -p cbr -e 1000 -c 1 -i 11 -a 1 -x {0.1 1073741824.0 -1 ------- null}
- -t 0.555171428571429 -s 1 -d 4 -p cbr -e 1000 -c 2 -i 14 -a 2 -x {1.1 1073741825.0 5 ------- null}
h -t 0.555171428571429 -s 1 -d 4 -p cbr -e 1000 -c 2 -i 14 -a 2 -x {1.1 1073741825.0 -1 ------- null}
- -t 0.555171428571429 -s 2 -d 5 -p cbr -e 1000 -c 3 -i 17 -a 3 -x {2.1 1073741826.0 5 ------- null}
h -t 0.555171428571429 -s 2 -d 5 -p cbr -e 1000 -c 3 -i 17 -a 3 -x {2.1 1073741826.0 -1 ------- null}
r -t 0.564371428571429 -s 0 -d 1 -p cbr -e 1000 -c 1 -i 9 -a 1 -x {0.1 1073741824.0 3 ------- null}
+ -t 0.564371428571429 -s 1 -d 3 -p cbr -e 1000 -c 1 -i 9 -a 1 -x {0.1 1073741824.0 3 ------- null}
- -t 0.564371428571429 -s 1 -d 3 -p cbr -e 1000 -c 1 -i 9 -a 1 -x {0.1 1073741824.0 3 ------- null}
h -t 0.564371428571429 -s 1 -d 3 -p cbr -e 1000 -c 1 -i 9 -a 1 -x {0.1 1073741824.0 -1 ------- null}
r -t 0.564371428571429 -s 1 -d 4 -p cbr -e 1000 -c 2 -i 12 -a 2 -x {1.1 1073741825.0 3 ------- null}
r -t 0.564371428571429 -s 2 -d 5 -p cbr -e 1000 -c 3 -i 15 -a 3 -x {2.1 1073741826.0 3 ------- null}
r -t 0.565171428571429 -s 0 -d 1 -p cbr -e 1000 -c 1 -i 10 -a 1 -x {0.1 1073741824.0 4 ------- null}
+ -t 0.565171428571429 -s 1 -d 3 -p cbr -e 1000 -c 1 -i 10 -a 1 -x {0.1 1073741824.0 4 ------- null}
r -t 0.565171428571429 -s 1 -d 4 -p cbr -e 1000 -c 2 -i 13 -a 2 -x {1.1 1073741825.0 4 ------- null}
r -t 0.565171428571429 -s 2 -d 5 -p cbr -e 1000 -c 3 -i 16 -a 3 -x {2.1 1073741826.0 4 ------- null}
- -t 0.565171428571429 -s 1 -d 3 -p cbr -e 1000 -c 1 -i 10 -a 1 -x {0.1 1073741824.0 4 ------- null}
h -t 0.565171428571429 -s 1 -d 3 -p cbr -e 1000 -c 1 -i 10 -a 1 -x {0.1 1073741824.0 -1 ------- null}
r -t 0.565971428571429 -s 0 -d 1 -p cbr -e 1000 -c 1 -i 11 -a 1 -x {0.1 1073741824.0 5 ------- null}
+ -t 0.565971428571429 -s 1 -d 3 -p cbr -e 1000 -c 1 -i 11 -a 1 -x {0.1 1073741824.0 5 ------- null}
r -t 0.565971428571429 -s 1 -d 4 -p cbr -e 1000 -c 2 -i 14 -a 2 -x {1.1 1073741825.0 5 ------- null}
r -t 0.565971428571429 -s 2 -d 5 -p cbr -e 1000 -c 3 -i 17 -a 3 -x {2.1 1073741826.0 5 ------- null}
- -t 0.565971428571429 -s 1 -d 3 -p cbr -e 1000 -c 1 -i 11 -a 1 -x {0.1 1073741824.0 5 ------- null}
h -t 0.565971428571429 -s 1 -d 3 -p cbr -e 1000 -c 1 -i 11 -a 1 -x {0.1 1073741824.0 -1 ------- null}
r -t 0.575171428571429 -s 1 -d 3 -p cbr -e 1000 -c 1 -i 9 -a 1 -x {0.1 1073741824.0 3 ------- null}
r -t 0.575971428571429 -s 1 -d 3 -p cbr -e 1000 -c 1 -i 10 -a 1 -x {0.1 1073741824.0 4 ------- null}
r -t 0.576771428571429 -s 1 -d 3 -p cbr -e 1000 -c 1 -i 11 -a 1 -x {0.1 1073741824.0 5 ------- null}
+ -t 0.607142857142857 -s 0 -d 1 -p cbr -e 1000 -c 1 -i 18 -a 1 -x {0.1 1073741824.0 6 ------- null}
- -t 0.607142857142857 -s 0 -d 1 -p cbr -e 1000 -c 1 -i 18 -a 1 -x {0.1 1073741824.0 6 ------- null}
h -t 0.607142857142857 -s 0 -d 1 -p cbr -e 1000 -c 1 -i 18 -a 1 -x {0.1 1073741824.0 -1 ------- null}
+ -t 0.607142857142857 -s 0 -d 1 -p cbr -e 1000 -c 1 -i 19 -a 1 -x {0.1 1073741824.0 7 ------- null}
+ -t 0.607142857142857 -s 0 -d 1 -p cbr -e 1000 -c 1 -i 20 -a 1 -x {0.1 1073741824.0 8 ------- null}
+ -t 0.607142857142857 -s 1 -d 4 -p cbr -e 1000 -c 2 -i 21 -a 2 -x {1.1 1073741825.0 6 ------- null}
- -t 0.607142857142857 -s 1 -d 4 -p cbr -e 1000 -c 2 -i 21 -a 2 -x {1.1 1073741825.0 6 ------- null}
h -t 0.607142857142857 -s 1 -d 4 -p cbr -e 1000 -c 2 -i 21 -a 2 -x {1.1 1073741825.0 -1 ------- null}
+ -t 0.607142857142857 -s 1 -d 4 -p cbr -e 1000 -c 2 -i 22 -a 2 -x {1.1 1073741825.0 7 ------- null}
+ -t 0.607142857142857 -s 1 -d 4 -p cbr -e 1000 -c 2 -i 23 -a 2 -x {1.1 1073741825.0 8 ------- null}
+ -t 0.607142857142857 -s 2 -d 5 -p cbr -e 1000 -c 3 -i 24 -a 3 -x {2.1 1073741826.0 6 ------- null}
- -t 0.607142857142857 -s 2 -d 5 -p cbr -e 1000 -c 3 -i 24 -a 3 -x {2.1 1073741826.0 6 ------- null}
h -t 0.607142857142857 -s 2 -d 5 -p cbr -e 1000 -c 3 -i 24 -a 3 -x {2.1 1073741826.0 -1 ------- null}
+ -t 0.607142857142857 -s 2 -d 5 -p cbr -e 1000 -c 3 -i 25 -a 3 -x {2.1 1073741826.0 7 ------- null}
+ -t 0.607142857142857 -s 2 -d 5 -p cbr -e 1000 -c 3 -i 26 -a 3 -x {2.1 1073741826.0 8 ------- null}
- -t 0.607942857142857 -s 0 -d 1 -p cbr -e 1000 -c 1 -i 19 -a 1 -x {0.1 1073741824.0 7 ------- null}
h -t 0.607942857142857 -s 0 -d 1 -p cbr -e 1000 -c 1 -i 19 -a 1 -x {0.1 1073741824.0 -1 ------- null}
- -t 0.607942857142857 -s 1 -d 4 -p cbr -e 1000 -c 2 -i 22 -a 2 -x {1.1 1073741825.0 7 ------- null}
h -t 0.607942857142857 -s 1 -d 4 -p cbr -e 1000 -c 2 -i 22 -a 2 -x {1.1 1073741825.0 -1 ------- null}
- -t 0.607942857142857 -s 2 -d 5 -p cbr -e 1000 -c 3 -i 25 -a 3 -x {2.1 1073741826.0 7 ------- null}
h -t 0.607942857142857 -s 2 -d 5 -p cbr -e 1000 -c 3 -i 25 -a 3 -x {2.1 1073741826.0 -1 ------- null}
- -t 0.608742857142857 -s 0 -d 1 -p cbr -e 1000 -c 1 -i 20 -a 1 -x {0.1 1073741824.0 8 ------- null}
h -t 0.608742857142857 -s 0 -d 1 -p cbr -e 1000 -c 1 -i 20 -a 1 -x {0.1 1073741824.0 -1 ------- null}
- -t 0.608742857142857 -s 1 -d 4 -p cbr -e 1000 -c 2 -i 23 -a 2 -x {1.1 1073741825.0 8 ------- null}
h -t 0.608742857142857 -s 1 -d 4 -p cbr -e 1000 -c 2 -i 23 -a 2 -x {1.1 1073741825.0 -1 ------- null}
- -t 0.608742857142857 -s 2 -d 5 -p cbr -e 1000 -c 3 -i 26 -a 3 -x {2.1 1073741826.0 8 ------- null}
h -t 0.608742857142857 -s 2 -d 5 -p cbr -e 1000 -c 3 -i 26 -a 3 -x {2.1 1073741826.0 -1 ------- null}
r -t 0.617942857142857 -s 0 -d 1 -p cbr -e 1000 -c 1 -i 18 -a 1 -x {0.1 1073741824.0 6 ------- null}
+ -t 0.617942857142857 -s 1 -d 3 -p cbr -e 1000 -c 1 -i 18 -a 1 -x {0.1 1073741824.0 6 ------- null}
- -t 0.617942857142857 -s 1 -d 3 -p cbr -e 1000 -c 1 -i 18 -a 1 -x {0.1 1073741824.0 6 ------- null}
h -t 0.617942857142857 -s 1 -d 3 -p cbr -e 1000 -c 1 -i 18 -a 1 -x {0.1 1073741824.0 -1 ------- null}
r -t 0.617942857142857 -s 1 -d 4 -p cbr -e 1000 -c 2 -i 21 -a 2 -x {1.1 1073741825.0 6 ------- null}
r -t 0.617942857142857 -s 2 -d 5 -p cbr -e 1000 -c 3 -i 24 -a 3 -x {2.1 1073741826.0 6 ------- null}
r -t 0.618742857142857 -s 0 -d 1 -p cbr -e 1000 -c 1 -i 19 -a 1 -x {0.1 1073741824.0 7 ------- null}
+ -t 0.618742857142857 -s 1 -d 3 -p cbr -e 1000 -c 1 -i 19 -a 1 -x {0.1 1073741824.0 7 ------- null}
r -t 0.618742857142857 -s 1 -d 4 -p cbr -e 1000 -c 2 -i 22 -a 2 -x {1.1 1073741825.0 7 ------- null}
r -t 0.618742857142857 -s 2 -d 5 -p cbr -e 1000 -c 3 -i 25 -a 3 -x {2.1 1073741826.0 7 ------- null}
- -t 0.618742857142857 -s 1 -d 3 -p cbr -e 1000 -c 1 -i 19 -a 1 -x {0.1 1073741824.0 7 ------- null}
h -t 0.618742857142857 -s 1 -d 3 -p cbr -e 1000 -c 1 -i 19 -a 1 -x {0.1 1073741824.0 -1 ------- null}
r -t 0.619542857142857 -s 0 -d 1 -p cbr -e 1000 -c 1 -i 20 -a 1 -x {0.1 1073741824.0 8 ------- null}
+ -t 0.619542857142857 -s 1 -d 3 -p cbr -e 1000 -c 1 -i 20 -a 1 -x {0.1 1073741824.0 8 ------- null}
r -t 0.619542857142857 -s 1 -d 4 -p cbr -e 1000 -c 2 -i 23 -a 2 -x {1.1 1073741825.0 8 ------- null}
r -t 0.619542857142857 -s 2 -d 5 -p cbr -e 1000 -c 3 -i 26 -a 3 -x {2.1 1073741826.0 8 ------- null}
- -t 0.619542857142857 -s 1 -d 3 -p cbr -e 1000 -c 1 -i 20 -a 1 -x {0.1 1073741824.0 8 ------- null}
h -t 0.619542857142857 -s 1 -d 3 -p cbr -e 1000 -c 1 -i 20 -a 1 -x {0.1 1073741824.0 -1 ------- null}
r -t 0.628742857142857 -s 1 -d 3 -p cbr -e 1000 -c 1 -i 18 -a 1 -x {0.1 1073741824.0 6 ------- null}
r -t 0.629542857142857 -s 1 -d 3 -p cbr -e 1000 -c 1 -i 19 -a 1 -x {0.1 1073741824.0 7 ------- null}
r -t 0.630342857142857 -s 1 -d 3 -p cbr -e 1000 -c 1 -i 20 -a 1 -x {0.1 1073741824.0 8 ------- null}
+ -t 0.660714285714286 -s 0 -d 1 -p cbr -e 1000 -c 1 -i 27 -a 1 -x {0.1 1073741824.0 9 ------- null}
- -t 0.660714285714286 -s 0 -d 1 -p cbr -e 1000 -c 1 -i 27 -a 1 -x {0.1 1073741824.0 9 ------- null}
h -t 0.660714285714286 -s 0 -d 1 -p cbr -e 1000 -c 1 -i 27 -a 1 -x {0.1 1073741824.0 -1 ------- null}
+ -t 0.660714285714286 -s 0 -d 1 -p cbr -e 1000 -c 1 -i 28 -a 1 -x {0.1 1073741824.0 10 ------- null}
+ -t 0.660714285714286 -s 0 -d 1 -p cbr -e 1000 -c 1 -i 29 -a 1 -x {0.1 1073741824.0 11 ------- null}
+ -t 0.660714285714286 -s 1 -d 4 -p cbr -e 1000 -c 2 -i 30 -a 2 -x {1.1 1073741825.0 9 ------- null}
- -t 0.660714285714286 -s 1 -d 4 -p cbr -e 1000 -c 2 -i 30 -a 2 -x {1.1 1073741825.0 9 ------- null}
h -t 0.660714285714286 -s 1 -d 4 -p cbr -e 1000 -c 2 -i 30 -a 2 -x {1.1 1073741825.0 -1 ------- null}
+ -t 0.660714285714286 -s 1 -d 4 -p cbr -e 1000 -c 2 -i 31 -a 2 -x {1.1 1073741825.0 10 ------- null}
+ -t 0.660714285714286 -s 1 -d 4 -p cbr -e 1000 -c 2 -i 32 -a 2 -x {1.1 1073741825.0 11 ------- null}
+ -t 0.660714285714286 -s 2 -d 5 -p cbr -e 1000 -c 3 -i 33 -a 3 -x {2.1 1073741826.0 9 ------- null}
- -t 0.660714285714286 -s 2 -d 5 -p cbr -e 1000 -c 3 -i 33 -a 3 -x {2.1 1073741826.0 9 ------- null}
h -t 0.660714285714286 -s 2 -d 5 -p cbr -e 1000 -c 3 -i 33 -a 3 -x {2.1 1073741826.0 -1 ------- null}
+ -t 0.660714285714286 -s 2 -d 5 -p cbr -e 1000 -c 3 -i 34 -a 3 -x {2.1 1073741826.0 10 ------- null}
+ -t 0.660714285714286 -s 2 -d 5 -p cbr -e 1000 -c 3 -i 35 -a 3 -x {2.1 1073741826.0 11 ------- null}
- -t 0.661514285714286 -s 0 -d 1 -p cbr -e 1000 -c 1 -i 28 -a 1 -x {0.1 1073741824.0 10 ------- null}
h -t 0.661514285714286 -s 0 -d 1 -p cbr -e 1000 -c 1 -i 28 -a 1 -x {0.1 1073741824.0 -1 ------- null}
- -t 0.661514285714286 -s 1 -d 4 -p cbr -e 1000 -c 2 -i 31 -a 2 -x {1.1 1073741825.0 10 ------- null}
h -t 0.661514285714286 -s 1 -d 4 -p cbr -e 1000 -c 2 -i 31 -a 2 -x {1.1 1073741825.0 -1 ------- null}
- -t 0.661514285714286 -s 2 -d 5 -p cbr -e 1000 -c 3 -i 34 -a 3 -x {2.1 1073741826.0 10 ------- null}
h -t 0.661514285714286 -s 2 -d 5 -p cbr -e 1000 -c 3 -i 34 -a 3 -x {2.1 1073741826.0 -1 ------- null}
- -t 0.662314285714286 -s 0 -d 1 -p cbr -e 1000 -c 1 -i 29 -a 1 -x {0.1 1073741824.0 11 ------- null}
h -t 0.662314285714286 -s 0 -d 1 -p cbr -e 1000 -c 1 -i 29 -a 1 -x {0.1 1073741824.0 -1 ------- null}
- -t 0.662314285714286 -s 1 -d 4 -p cbr -e 1000 -c 2 -i 32 -a 2 -x {1.1 1073741825.0 11 ------- null}
h -t 0.662314285714286 -s 1 -d 4 -p cbr -e 1000 -c 2 -i 32 -a 2 -x {1.1 1073741825.0 -1 ------- null}
- -t 0.662314285714286 -s 2 -d 5 -p cbr -e 1000 -c 3 -i 35 -a 3 -x {2.1 1073741826.0 11 ------- null}
h -t 0.662314285714286 -s 2 -d 5 -p cbr -e 1000 -c 3 -i 35 -a 3 -x {2.1 1073741826.0 -1 ------- null}
r -t 0.671514285714286 -s 0 -d 1 -p cbr -e 1000 -c 1 -i 27 -a 1 -x {0.1 1073741824.0 9 ------- null}
+ -t 0.671514285714286 -s 1 -d 3 -p cbr -e 1000 -c 1 -i 27 -a 1 -x {0.1 1073741824.0 9 ------- null}
- -t 0.671514285714286 -s 1 -d 3 -p cbr -e 1000 -c 1 -i 27 -a 1 -x {0.1 1073741824.0 9 ------- null}
h -t 0.671514285714286 -s 1 -d 3 -p cbr -e 1000 -c 1 -i 27 -a 1 -x {0.1 1073741824.0 -1 ------- null}
r -t 0.671514285714286 -s 1 -d 4 -p cbr -e 1000 -c 2 -i 30 -a 2 -x {1.1 1073741825.0 9 ------- null}
r -t 0.671514285714286 -s 2 -d 5 -p cbr -e 1000 -c 3 -i 33 -a 3 -x {2.1 1073741826.0 9 ------- null}
r -t 0.672314285714286 -s 0 -d 1 -p cbr -e 1000 -c 1 -i 28 -a 1 -x {0.1 1073741824.0 10 ------- null}
+ -t 0.672314285714286 -s 1 -d 3 -p cbr -e 1000 -c 1 -i 28 -a 1 -x {0.1 1073741824.0 10 ------- null}
r -t 0.672314285714286 -s 1 -d 4 -p cbr -e 1000 -c 2 -i 31 -a 2 -x {1.1 1073741825.0 10 ------- null}
r -t 0.672314285714286 -s 2 -d 5 -p cbr -e 1000 -c 3 -i 34 -a 3 -x {2.1 1073741826.0 10 ------- null}
- -t 0.672314285714286 -s 1 -d 3 -p cbr -e 1000 -c 1 -i 28 -a 1 -x {0.1 1073741824.0 10 ------- null}
h -t 0.672314285714286 -s 1 -d 3 -p cbr -e 1000 -c 1 -i 28 -a 1 -x {0.1 1073741824.0 -1 ------- null}
r -t 0.673114285714286 -s 0 -d 1 -p cbr -e 1000 -c 1 -i 29 -a 1 -x {0.1 1073741824.0 11 ------- null}
+ -t 0.673114285714286 -s 1 -d 3 -p cbr -e 1000 -c 1 -i 29 -a 1 -x {0.1 1073741824.0 11 ------- null}
r -t 0.673114285714286 -s 1 -d 4 -p cbr -e 1000 -c 2 -i 32 -a 2 -x {1.1 1073741825.0 11 ------- null}
r -t 0.673114285714286 -s 2 -d 5 -p cbr -e 1000 -c 3 -i 35 -a 3 -x {2.1 1073741826.0 11 ------- null}
- -t 0.673114285714286 -s 1 -d 3 -p cbr -e 1000 -c 1 -i 29 -a 1 -x {0.1 1073741824.0 11 ------- null}
h -t 0.673114285714286 -s 1 -d 3 -p cbr -e 1000 -c 1 -i 29 -a 1 -x {0.1 1073741824.0 -1 ------- null}
r -t 0.682314285714286 -s 1 -d 3 -p cbr -e 1000 -c 1 -i 27 -a 1 -x {0.1 1073741824.0 9 ------- null}
r -t 0.683114285714286 -s 1 -d 3 -p cbr -e 1000 -c 1 -i 28 -a 1 -x {0.1 1073741824.0 10 ------- null}
r -t 0.683914285714286 -s 1 -d 3 -p cbr -e 1000 -c 1 -i 29 -a 1 -x {0.1 1073741824.0 11 ------- null}
+ -t 0.714285714285714 -s 0 -d 1 -p cbr -e 1000 -c 1 -i 36 -a 1 -x {0.1 1073741824.0 12 ------- null}
- -t 0.714285714285714 -s 0 -d 1 -p cbr -e 1000 -c 1 -i 36 -a 1 -x {0.1 1073741824.0 12 ------- null}
h -t 0.714285714285714 -s 0 -d 1 -p cbr -e 1000 -c 1 -i 36 -a 1 -x {0.1 1073741824.0 -1 ------- null}
+ -t 0.714285714285714 -s 0 -d 1 -p cbr -e 1000 -c 1 -i 37 -a 1 -x {0.1 1073741824.0 13 ------- null}
+ -t 0.714285714285714 -s 0 -d 1 -p cbr -e 1000 -c 1 -i 38 -a 1 -x {0.1 1073741824.0 14 ------- null}
+ -t 0.714285714285714 -s 1 -d 4 -p cbr -e 1000 -c 2 -i 39 -a 2 -x {1.1 1073741825.0 12 ------- null}
- -t 0.714285714285714 -s 1 -d 4 -p cbr -e 1000 -c 2 -i 39 -a 2 -x {1.1 1073741825.0 12 ------- null}
h -t 0.714285714285714 -s 1 -d 4 -p cbr -e 1000 -c 2 -i 39 -a 2 -x {1.1 1073741825.0 -1 ------- null}
+ -t 0.714285714285714 -s 1 -d 4 -p cbr -e 1000 -c 2 -i 40 -a 2 -x {1.1 1073741825.0 13 ------- null}
+ -t 0.714285714285714 -s 1 -d 4 -p cbr -e 1000 -c 2 -i 41 -a 2 -x {1.1 1073741825.0 14 ------- null}
+ -t 0.714285714285714 -s 2 -d 5 -p cbr -e 1000 -c 3 -i 42 -a 3 -x {2.1 1073741826.0 12 ------- null}
- -t 0.714285714285714 -s 2 -d 5 -p cbr -e 1000 -c 3 -i 42 -a 3 -x {2.1 1073741826.0 12 ------- null}
h -t 0.714285714285714 -s 2 -d 5 -p cbr -e 1000 -c 3 -i 42 -a 3 -x {2.1 1073741826.0 -1 ------- null}
+ -t 0.714285714285714 -s 2 -d 5 -p cbr -e 1000 -c 3 -i 43 -a 3 -x {2.1 1073741826.0 13 ------- null}
+ -t 0.714285714285714 -s 2 -d 5 -p cbr -e 1000 -c 3 -i 44 -a 3 -x {2.1 1073741826.0 14 ------- null}
- -t 0.715085714285714 -s 0 -d 1 -p cbr -e 1000 -c 1 -i 37 -a 1 -x {0.1 1073741824.0 13 ------- null}
h -t 0.715085714285714 -s 0 -d 1 -p cbr -e 1000 -c 1 -i 37 -a 1 -x {0.1 1073741824.0 -1 ------- null}
- -t 0.715085714285714 -s 1 -d 4 -p cbr -e 1000 -c 2 -i 40 -a 2 -x {1.1 1073741825.0 13 ------- null}
h -t 0.715085714285714 -s 1 -d 4 -p cbr -e 1000 -c 2 -i 40 -a 2 -x {1.1 1073741825.0 -1 ------- null}
- -t 0.715085714285714 -s 2 -d 5 -p cbr -e 1000 -c 3 -i 43 -a 3 -x {2.1 1073741826.0 13 ------- null}
h -t 0.715085714285714 -s 2 -d 5 -p cbr -e 1000 -c 3 -i 43 -a 3 -x {2.1 1073741826.0 -1 ------- null}
- -t 0.715885714285714 -s 0 -d 1 -p cbr -e 1000 -c 1 -i 38 -a 1 -x {0.1 1073741824.0 14 ------- null}
h -t 0.715885714285714 -s 0 -d 1 -p cbr -e 1000 -c 1 -i 38 -a 1 -x {0.1 1073741824.0 -1 ------- null}
- -t 0.715885714285714 -s 1 -d 4 -p cbr -e 1000 -c 2 -i 41 -a 2 -x {1.1 1073741825.0 14 ------- null}
h -t 0.715885714285714 -s 1 -d 4 -p cbr -e 1000 -c 2 -i 41 -a 2 -x {1.1 1073741825.0 -1 ------- null}
- -t 0.715885714285714 -s 2 -d 5 -p cbr -e 1000 -c 3 -i 44 -a 3 -x {2.1 1073741826.0 14 ------- null}
h -t 0.715885714285714 -s 2 -d 5 -p cbr -e 1000 -c 3 -i 44 -a 3 -x {2.1 1073741826.0 -1 ------- null}
r -t 0.725085714285714 -s 0 -d 1 -p cbr -e 1000 -c 1 -i 36 -a 1 -x {0.1 1073741824.0 12 ------- null}
+ -t 0.725085714285714 -s 1 -d 3 -p cbr -e 1000 -c 1 -i 36 -a 1 -x {0.1 1073741824.0 12 ------- null}
- -t 0.725085714285714 -s 1 -d 3 -p cbr -e 1000 -c 1 -i 36 -a 1 -x {0.1 1073741824.0 12 ------- null}
h -t 0.725085714285714 -s 1 -d 3 -p cbr -e 1000 -c 1 -i 36 -a 1 -x {0.1 1073741824.0 -1 ------- null}
r -t 0.725085714285714 -s 1 -d 4 -p cbr -e 1000 -c 2 -i 39 -a 2 -x {1.1 1073741825.0 12 ------- null}
r -t 0.725085714285714 -s 2 -d 5 -p cbr -e 1000 -c 3 -i 42 -a 3 -x {2.1 1073741826.0 12 ------- null}
r -t 0.725885714285714 -s 0 -d 1 -p cbr -e 1000 -c 1 -i 37 -a 1 -x {0.1 1073741824.0 13 ------- null}
+ -t 0.725885714285714 -s 1 -d 3 -p cbr -e 1000 -c 1 -i 37 -a 1 -x {0.1 1073741824.0 13 ------- null}
r -t 0.725885714285714 -s 1 -d 4 -p cbr -e 1000 -c 2 -i 40 -a 2 -x {1.1 1073741825.0 13 ------- null}
r -t 0.725885714285714 -s 2 -d 5 -p cbr -e 1000 -c 3 -i 43 -a 3 -x {2.1 1073741826.0 13 ------- null}
- -t 0.725885714285714 -s 1 -d 3 -p cbr -e 1000 -c 1 -i 37 -a 1 -x {0.1 1073741824.0 13 ------- null}
h -t 0.725885714285714 -s 1 -d 3 -p cbr -e 1000 -c 1 -i 37 -a 1 -x {0.1 1073741824.0 -1 ------- null}
r -t 0.726685714285714 -s 0 -d 1 -p cbr -e 1000 -c 1 -i 38 -a 1 -x {0.1 1073741824.0 14 ------- null}
+ -t 0.726685714285714 -s 1 -d 3 -p cbr -e 1000 -c 1 -i 38 -a 1 -x {0.1 1073741824.0 14 ------- null}
r -t 0.726685714285714 -s 1 -d 4 -p cbr -e 1000 -c 2 -i 41 -a 2 -x {1.1 1073741825.0 14 ------- null}
r -t 0.726685714285714 -s 2 -d 5 -p cbr -e 1000 -c 3 -i 44 -a 3 -x {2.1 1073741826.0 14 ------- null}
- -t 0.726685714285714 -s 1 -d 3 -p cbr -e 1000 -c 1 -i 38 -a 1 -x {0.1 1073741824.0 14 ------- null}
h -t 0.726685714285714 -s 1 -d 3 -p cbr -e 1000 -c 1 -i 38 -a 1 -x {0.1 1073741824.0 -1 ------- null}
r -t 0.735885714285714 -s 1 -d 3 -p cbr -e 1000 -c 1 -i 36 -a 1 -x {0.1 1073741824.0 12 ------- null}
r -t 0.736685714285714 -s 1 -d 3 -p cbr -e 1000 -c 1 -i 37 -a 1 -x {0.1 1073741824.0 13 ------- null}
r -t 0.737485714285715 -s 1 -d 3 -p cbr -e 1000 -c 1 -i 38 -a 1 -x {0.1 1073741824.0 14 ------- null}
+ -t 0.767857142857143 -s 0 -d 1 -p cbr -e 1000 -c 1 -i 45 -a 1 -x {0.1 1073741824.0 15 ------- null}
- -t 0.767857142857143 -s 0 -d 1 -p cbr -e 1000 -c 1 -i 45 -a 1 -x {0.1 1073741824.0 15 ------- null}
h -t 0.767857142857143 -s 0 -d 1 -p cbr -e 1000 -c 1 -i 45 -a 1 -x {0.1 1073741824.0 -1 ------- null}
+ -t 0.767857142857143 -s 0 -d 1 -p cbr -e 1000 -c 1 -i 46 -a 1 -x {0.1 1073741824.0 16 ------- null}
+ -t 0.767857142857143 -s 0 -d 1 -p cbr -e 1000 -c 1 -i 47 -a 1 -x {0.1 1073741824.0 17 ------- null}
+ -t 0.767857142857143 -s 1 -d 4 -p cbr -e 1000 -c 2 -i 48 -a 2 -x {1.1 1073741825.0 15 ------- null}
- -t 0.767857142857143 -s 1 -d 4 -p cbr -e 1000 -c 2 -i 48 -a 2 -x {1.1 1073741825.0 15 ------- null}
h -t 0.767857142857143 -s 1 -d 4 -p cbr -e 1000 -c 2 -i 48 -a 2 -x {1.1 1073741825.0 -1 ------- null}
+ -t 0.767857142857143 -s 1 -d 4 -p cbr -e 1000 -c 2 -i 49 -a 2 -x {1.1 1073741825.0 16 ------- null}
+ -t 0.767857142857143 -s 1 -d 4 -p cbr -e 1000 -c 2 -i 50 -a 2 -x {1.1 1073741825.0 17 ------- null}
+ -t 0.767857142857143 -s 2 -d 5 -p cbr -e 1000 -c 3 -i 51 -a 3 -x {2.1 1073741826.0 15 ------- null}
- -t 0.767857142857143 -s 2 -d 5 -p cbr -e 1000 -c 3 -i 51 -a 3 -x {2.1 1073741826.0 15 ------- null}
h -t 0.767857142857143 -s 2 -d 5 -p cbr -e 1000 -c 3 -i 51 -a 3 -x {2.1 1073741826.0 -1 ------- null}
+ -t 0.767857142857143 -s 2 -d 5 -p cbr -e 1000 -c 3 -i 52 -a 3 -x {2.1 1073741826.0 16 ------- null}
+ -t 0.767857142857143 -s 2 -d 5 -p cbr -e 1000 -c 3 -i 53 -a 3 -x {2.1 1073741826.0 17 ------- null}
- -t 0.768657142857143 -s 0 -d 1 -p cbr -e 1000 -c 1 -i 46 -a 1 -x {0.1 1073741824.0 16 ------- null}
h -t 0.768657142857143 -s 0 -d 1 -p cbr -e 1000 -c 1 -i 46 -a 1 -x {0.1 1073741824.0 -1 ------- null}
- -t 0.768657142857143 -s 1 -d 4 -p cbr -e 1000 -c 2 -i 49 -a 2 -x {1.1 1073741825.0 16 ------- null}
h -t 0.768657142857143 -s 1 -d 4 -p cbr -e 1000 -c 2 -i 49 -a 2 -x {1.1 1073741825.0 -1 ------- null}
- -t 0.768657142857143 -s 2 -d 5 -p cbr -e 1000 -c 3 -i 52 -a 3 -x {2.1 1073741826.0 16 ------- null}
h -t 0.768657142857143 -s 2 -d 5 -p cbr -e 1000 -c 3 -i 52 -a 3 -x {2.1 1073741826.0 -1 ------- null}
- -t 0.769457142857143 -s 0 -d 1 -p cbr -e 1000 -c 1 -i 47 -a 1 -x {0.1 1073741824.0 17 ------- null}
h -t 0.769457142857143 -s 0 -d 1 -p cbr -e 1000 -c 1 -i 47 -a 1 -x {0.1 1073741824.0 -1 ------- null}
- -t 0.769457142857143 -s 1 -d 4 -p cbr -e 1000 -c 2 -i 50 -a 2 -x {1.1 1073741825.0 17 ------- null}
h -t 0.769457142857143 -s 1 -d 4 -p cbr -e 1000 -c 2 -i 50 -a 2 -x {1.1 1073741825.0 -1 ------- null}
- -t 0.769457142857143 -s 2 -d 5 -p cbr -e 1000 -c 3 -i 53 -a 3 -x {2.1 1073741826.0 17 ------- null}
h -t 0.769457142857143 -s 2 -d 5 -p cbr -e 1000 -c 3 -i 53 -a 3 -x {2.1 1073741826.0 -1 ------- null}
r -t 0.778657142857143 -s 0 -d 1 -p cbr -e 1000 -c 1 -i 45 -a 1 -x {0.1 1073741824.0 15 ------- null}
+ -t 0.778657142857143 -s 1 -d 3 -p cbr -e 1000 -c 1 -i 45 -a 1 -x {0.1 1073741824.0 15 ------- null}
- -t 0.778657142857143 -s 1 -d 3 -p cbr -e 1000 -c 1 -i 45 -a 1 -x {0.1 1073741824.0 15 ------- null}