+ 0.5 0 1 cbr 1000 ------- 1 0.1 1073741824.0 0 0
- 0.5 0 1 cbr 1000 ------- 1 0.1 1073741824.0 0 0
+ 0.5 0 2 cbr 1000 ------- 1 0.1 1073741824.0 0 0
- 0.5 0 2 cbr 1000 ------- 1 0.1 1073741824.0 0 0
+ 0.5 0 1 cbr 1000 ------- 1 0.1 1073741824.0 1 1
+ 0.5 0 2 cbr 1000 ------- 1 0.1 1073741824.0 1 1
+ 0.5 0 1 cbr 1000 ------- 1 0.1 1073741824.0 2 2
+ 0.5 0 2 cbr 1000 ------- 1 0.1 1073741824.0 2 2
+ 0.5 1 0 cbr 1000 ------- 2 1.1 1073741825.0 0 3
- 0.5 1 0 cbr 1000 ------- 2 1.1 1073741825.0 0 3
+ 0.5 1 2 cbr 1000 ------- 2 1.1 1073741825.0 0 3
- 0.5 1 2 cbr 1000 ------- 2 1.1 1073741825.0 0 3
+ 0.5 1 3 cbr 1000 ------- 2 1.1 1073741825.0 0 3
- 0.5 1 3 cbr 1000 ------- 2 1.1 1073741825.0 0 3
+ 0.5 1 4 cbr 1000 ------- 2 1.1 1073741825.0 0 3
- 0.5 1 4 cbr 1000 ------- 2 1.1 1073741825.0 0 3
+ 0.5 1 0 cbr 1000 ------- 2 1.1 1073741825.0 1 4
+ 0.5 1 2 cbr 1000 ------- 2 1.1 1073741825.0 1 4
+ 0.5 1 3 cbr 1000 ------- 2 1.1 1073741825.0 1 4
+ 0.5 1 4 cbr 1000 ------- 2 1.1 1073741825.0 1 4
+ 0.5 1 0 cbr 1000 ------- 2 1.1 1073741825.0 2 5
+ 0.5 1 2 cbr 1000 ------- 2 1.1 1073741825.0 2 5
+ 0.5 1 3 cbr 1000 ------- 2 1.1 1073741825.0 2 5
+ 0.5 1 4 cbr 1000 ------- 2 1.1 1073741825.0 2 5
+ 0.5 2 0 cbr 1000 ------- 3 2.1 1073741826.0 0 6
- 0.5 2 0 cbr 1000 ------- 3 2.1 1073741826.0 0 6
+ 0.5 2 1 cbr 1000 ------- 3 2.1 1073741826.0 0 6
- 0.5 2 1 cbr 1000 ------- 3 2.1 1073741826.0 0 6
+ 0.5 2 4 cbr 1000 ------- 3 2.1 1073741826.0 0 6
- 0.5 2 4 cbr 1000 ------- 3 2.1 1073741826.0 0 6
+ 0.5 2 5 cbr 1000 ------- 3 2.1 1073741826.0 0 6
- 0.5 2 5 cbr 1000 ------- 3 2.1 1073741826.0 0 6
+ 0.5 2 0 cbr 1000 ------- 3 2.1 1073741826.0 1 7
+ 0.5 2 1 cbr 1000 ------- 3 2.1 1073741826.0 1 7
+ 0.5 2 4 cbr 1000 ------- 3 2.1 1073741826.0 1 7
+ 0.5 2 5 cbr 1000 ------- 3 2.1 1073741826.0 1 7
+ 0.5 2 0 cbr 1000 ------- 3 2.1 1073741826.0 2 8
+ 0.5 2 1 cbr 1000 ------- 3 2.1 1073741826.0 2 8
+ 0.5 2 4 cbr 1000 ------- 3 2.1 1073741826.0 2 8
+ 0.5 2 5 cbr 1000 ------- 3 2.1 1073741826.0 2 8
- 0.5008 0 1 cbr 1000 ------- 1 0.1 1073741824.0 1 1
- 0.5008 0 2 cbr 1000 ------- 1 0.1 1073741824.0 1 1
- 0.5008 1 0 cbr 1000 ------- 2 1.1 1073741825.0 1 4
- 0.5008 1 2 cbr 1000 ------- 2 1.1 1073741825.0 1 4
- 0.5008 1 3 cbr 1000 ------- 2 1.1 1073741825.0 1 4
- 0.5008 1 4 cbr 1000 ------- 2 1.1 1073741825.0 1 4
- 0.5008 2 0 cbr 1000 ------- 3 2.1 1073741826.0 1 7
- 0.5008 2 1 cbr 1000 ------- 3 2.1 1073741826.0 1 7
- 0.5008 2 4 cbr 1000 ------- 3 2.1 1073741826.0 1 7
- 0.5008 2 5 cbr 1000 ------- 3 2.1 1073741826.0 1 7
- 0.5016 0 1 cbr 1000 ------- 1 0.1 1073741824.0 2 2
- 0.5016 0 2 cbr 1000 ------- 1 0.1 1073741824.0 2 2
- 0.5016 1 0 cbr 1000 ------- 2 1.1 1073741825.0 2 5
- 0.5016 1 2 cbr 1000 ------- 2 1.1 1073741825.0 2 5
- 0.5016 1 3 cbr 1000 ------- 2 1.1 1073741825.0 2 5
- 0.5016 1 4 cbr 1000 ------- 2 1.1 1073741825.0 2 5
- 0.5016 2 0 cbr 1000 ------- 3 2.1 1073741826.0 2 8
- 0.5016 2 1 cbr 1000 ------- 3 2.1 1073741826.0 2 8
- 0.5016 2 4 cbr 1000 ------- 3 2.1 1073741826.0 2 8
- 0.5016 2 5 cbr 1000 ------- 3 2.1 1073741826.0 2 8
r 0.5108 0 1 cbr 1000 ------- 1 0.1 1073741824.0 0 0
+ 0.5108 1 3 cbr 1000 ------- 1 0.1 1073741824.0 0 0
- 0.5108 1 3 cbr 1000 ------- 1 0.1 1073741824.0 0 0
+ 0.5108 1 4 cbr 1000 ------- 1 0.1 1073741824.0 0 0
- 0.5108 1 4 cbr 1000 ------- 1 0.1 1073741824.0 0 0
r 0.5108 0 2 cbr 1000 ------- 1 0.1 1073741824.0 0 0
+ 0.5108 2 5 cbr 1000 ------- 1 0.1 1073741824.0 0 0
- 0.5108 2 5 cbr 1000 ------- 1 0.1 1073741824.0 0 0
r 0.5108 1 0 cbr 1000 ------- 2 1.1 1073741825.0 0 3
+ 0.5108 0 1 prune 80 ------- 30 0.0 1.0 -1 9
- 0.5108 0 1 prune 80 ------- 30 0.0 1.0 -1 9
r 0.5108 1 2 cbr 1000 ------- 2 1.1 1073741825.0 0 3
+ 0.5108 2 5 cbr 1000 ------- 2 1.1 1073741825.0 0 3
r 0.5108 1 3 cbr 1000 ------- 2 1.1 1073741825.0 0 3
+ 0.5108 3 6 cbr 1000 ------- 2 1.1 1073741825.0 0 3
- 0.5108 3 6 cbr 1000 ------- 2 1.1 1073741825.0 0 3
+ 0.5108 3 7 cbr 1000 ------- 2 1.1 1073741825.0 0 3
- 0.5108 3 7 cbr 1000 ------- 2 1.1 1073741825.0 0 3
r 0.5108 1 4 cbr 1000 ------- 2 1.1 1073741825.0 0 3
+ 0.5108 4 8 cbr 1000 ------- 2 1.1 1073741825.0 0 3
- 0.5108 4 8 cbr 1000 ------- 2 1.1 1073741825.0 0 3
r 0.5108 2 0 cbr 1000 ------- 3 2.1 1073741826.0 0 6
+ 0.5108 0 2 prune 80 ------- 30 0.0 2.0 -1 10
- 0.5108 0 2 prune 80 ------- 30 0.0 2.0 -1 10
r 0.5108 2 1 cbr 1000 ------- 3 2.1 1073741826.0 0 6
+ 0.5108 1 3 cbr 1000 ------- 3 2.1 1073741826.0 0 6
r 0.5108 2 4 cbr 1000 ------- 3 2.1 1073741826.0 0 6
+ 0.5108 4 7 cbr 1000 ------- 3 2.1 1073741826.0 0 6
- 0.5108 4 7 cbr 1000 ------- 3 2.1 1073741826.0 0 6
+ 0.5108 4 8 cbr 1000 ------- 3 2.1 1073741826.0 0 6
r 0.5108 2 5 cbr 1000 ------- 3 2.1 1073741826.0 0 6
+ 0.5108 5 9 cbr 1000 ------- 3 2.1 1073741826.0 0 6
- 0.5108 5 9 cbr 1000 ------- 3 2.1 1073741826.0 0 6
r 0.5116 0 1 cbr 1000 ------- 1 0.1 1073741824.0 1 1
+ 0.5116 1 3 cbr 1000 ------- 1 0.1 1073741824.0 1 1
+ 0.5116 1 4 cbr 1000 ------- 1 0.1 1073741824.0 1 1
r 0.5116 0 2 cbr 1000 ------- 1 0.1 1073741824.0 1 1
+ 0.5116 2 5 cbr 1000 ------- 1 0.1 1073741824.0 1 1
r 0.5116 1 0 cbr 1000 ------- 2 1.1 1073741825.0 1 4
+ 0.5116 0 1 prune 80 ------- 30 0.0 1.0 -1 11
- 0.5116 0 1 prune 80 ------- 30 0.0 1.0 -1 11
r 0.5116 1 2 cbr 1000 ------- 2 1.1 1073741825.0 1 4
+ 0.5116 2 5 cbr 1000 ------- 2 1.1 1073741825.0 1 4
r 0.5116 1 3 cbr 1000 ------- 2 1.1 1073741825.0 1 4
+ 0.5116 3 6 cbr 1000 ------- 2 1.1 1073741825.0 1 4
+ 0.5116 3 7 cbr 1000 ------- 2 1.1 1073741825.0 1 4
r 0.5116 1 4 cbr 1000 ------- 2 1.1 1073741825.0 1 4
+ 0.5116 4 8 cbr 1000 ------- 2 1.1 1073741825.0 1 4
r 0.5116 2 0 cbr 1000 ------- 3 2.1 1073741826.0 1 7
+ 0.5116 0 2 prune 80 ------- 30 0.0 2.0 -1 12
- 0.5116 0 2 prune 80 ------- 30 0.0 2.0 -1 12
r 0.5116 2 1 cbr 1000 ------- 3 2.1 1073741826.0 1 7
+ 0.5116 1 3 cbr 1000 ------- 3 2.1 1073741826.0 1 7
r 0.5116 2 4 cbr 1000 ------- 3 2.1 1073741826.0 1 7
+ 0.5116 4 7 cbr 1000 ------- 3 2.1 1073741826.0 1 7
+ 0.5116 4 8 cbr 1000 ------- 3 2.1 1073741826.0 1 7
r 0.5116 2 5 cbr 1000 ------- 3 2.1 1073741826.0 1 7
+ 0.5116 5 9 cbr 1000 ------- 3 2.1 1073741826.0 1 7
- 0.5116 1 3 cbr 1000 ------- 3 2.1 1073741826.0 0 6
- 0.5116 1 4 cbr 1000 ------- 1 0.1 1073741824.0 1 1
- 0.5116 2 5 cbr 1000 ------- 2 1.1 1073741825.0 0 3
- 0.5116 3 6 cbr 1000 ------- 2 1.1 1073741825.0 1 4
- 0.5116 3 7 cbr 1000 ------- 2 1.1 1073741825.0 1 4
- 0.5116 4 8 cbr 1000 ------- 3 2.1 1073741826.0 0 6
- 0.5116 4 7 cbr 1000 ------- 3 2.1 1073741826.0 1 7
- 0.5116 5 9 cbr 1000 ------- 3 2.1 1073741826.0 1 7
r 0.5124 0 1 cbr 1000 ------- 1 0.1 1073741824.0 2 2
+ 0.5124 1 3 cbr 1000 ------- 1 0.1 1073741824.0 2 2
+ 0.5124 1 4 cbr 1000 ------- 1 0.1 1073741824.0 2 2
r 0.5124 0 2 cbr 1000 ------- 1 0.1 1073741824.0 2 2
+ 0.5124 2 5 cbr 1000 ------- 1 0.1 1073741824.0 2 2
r 0.5124 1 0 cbr 1000 ------- 2 1.1 1073741825.0 2 5
+ 0.5124 0 1 prune 80 ------- 30 0.0 1.0 -1 13
- 0.5124 0 1 prune 80 ------- 30 0.0 1.0 -1 13
r 0.5124 1 2 cbr 1000 ------- 2 1.1 1073741825.0 2 5
+ 0.5124 2 5 cbr 1000 ------- 2 1.1 1073741825.0 2 5
r 0.5124 1 3 cbr 1000 ------- 2 1.1 1073741825.0 2 5
+ 0.5124 3 6 cbr 1000 ------- 2 1.1 1073741825.0 2 5
+ 0.5124 3 7 cbr 1000 ------- 2 1.1 1073741825.0 2 5
r 0.5124 1 4 cbr 1000 ------- 2 1.1 1073741825.0 2 5
+ 0.5124 4 8 cbr 1000 ------- 2 1.1 1073741825.0 2 5
r 0.5124 2 0 cbr 1000 ------- 3 2.1 1073741826.0 2 8
+ 0.5124 0 2 prune 80 ------- 30 0.0 2.0 -1 14
- 0.5124 0 2 prune 80 ------- 30 0.0 2.0 -1 14
r 0.5124 2 1 cbr 1000 ------- 3 2.1 1073741826.0 2 8
+ 0.5124 1 3 cbr 1000 ------- 3 2.1 1073741826.0 2 8
r 0.5124 2 4 cbr 1000 ------- 3 2.1 1073741826.0 2 8
+ 0.5124 4 7 cbr 1000 ------- 3 2.1 1073741826.0 2 8
+ 0.5124 4 8 cbr 1000 ------- 3 2.1 1073741826.0 2 8
r 0.5124 2 5 cbr 1000 ------- 3 2.1 1073741826.0 2 8
+ 0.5124 5 9 cbr 1000 ------- 3 2.1 1073741826.0 2 8
- 0.5124 1 3 cbr 1000 ------- 1 0.1 1073741824.0 1 1
- 0.5124 1 4 cbr 1000 ------- 1 0.1 1073741824.0 2 2
- 0.5124 2 5 cbr 1000 ------- 1 0.1 1073741824.0 1 1
- 0.5124 3 6 cbr 1000 ------- 2 1.1 1073741825.0 2 5
- 0.5124 3 7 cbr 1000 ------- 2 1.1 1073741825.0 2 5
- 0.5124 4 8 cbr 1000 ------- 2 1.1 1073741825.0 1 4
- 0.5124 4 7 cbr 1000 ------- 3 2.1 1073741826.0 2 8
- 0.5124 5 9 cbr 1000 ------- 3 2.1 1073741826.0 2 8
- 0.5132 1 3 cbr 1000 ------- 3 2.1 1073741826.0 1 7
- 0.5132 2 5 cbr 1000 ------- 2 1.1 1073741825.0 1 4
- 0.5132 4 8 cbr 1000 ------- 3 2.1 1073741826.0 1 7
- 0.514 1 3 cbr 1000 ------- 1 0.1 1073741824.0 2 2
- 0.514 2 5 cbr 1000 ------- 1 0.1 1073741824.0 2 2
- 0.514 4 8 cbr 1000 ------- 2 1.1 1073741825.0 2 5
- 0.5148 1 3 cbr 1000 ------- 3 2.1 1073741826.0 2 8
- 0.5148 2 5 cbr 1000 ------- 2 1.1 1073741825.0 2 5
- 0.5148 4 8 cbr 1000 ------- 3 2.1 1073741826.0 2 8
r 0.520864 0 1 prune 80 ------- 30 0.0 1.0 -1 9
r 0.520864 0 2 prune 80 ------- 30 0.0 2.0 -1 10
r 0.5216 1 3 cbr 1000 ------- 1 0.1 1073741824.0 0 0
+ 0.5216 3 6 cbr 1000 ------- 1 0.1 1073741824.0 0 0
- 0.5216 3 6 cbr 1000 ------- 1 0.1 1073741824.0 0 0
+ 0.5216 3 7 cbr 1000 ------- 1 0.1 1073741824.0 0 0
- 0.5216 3 7 cbr 1000 ------- 1 0.1 1073741824.0 0 0
r 0.5216 1 4 cbr 1000 ------- 1 0.1 1073741824.0 0 0
+ 0.5216 4 8 cbr 1000 ------- 1 0.1 1073741824.0 0 0
- 0.5216 4 8 cbr 1000 ------- 1 0.1 1073741824.0 0 0
r 0.5216 2 5 cbr 1000 ------- 1 0.1 1073741824.0 0 0
+ 0.5216 5 9 cbr 1000 ------- 1 0.1 1073741824.0 0 0
- 0.5216 5 9 cbr 1000 ------- 1 0.1 1073741824.0 0 0
r 0.5216 3 6 cbr 1000 ------- 2 1.1 1073741825.0 0 3
+ 0.5216 6 10 cbr 1000 ------- 2 1.1 1073741825.0 0 3
- 0.5216 6 10 cbr 1000 ------- 2 1.1 1073741825.0 0 3
+ 0.5216 6 11 cbr 1000 ------- 2 1.1 1073741825.0 0 3
- 0.5216 6 11 cbr 1000 ------- 2 1.1 1073741825.0 0 3
r 0.5216 3 7 cbr 1000 ------- 2 1.1 1073741825.0 0 3
+ 0.5216 7 12 cbr 1000 ------- 2 1.1 1073741825.0 0 3
- 0.5216 7 12 cbr 1000 ------- 2 1.1 1073741825.0 0 3
r 0.5216 4 8 cbr 1000 ------- 2 1.1 1073741825.0 0 3
+ 0.5216 8 13 cbr 1000 ------- 2 1.1 1073741825.0 0 3
- 0.5216 8 13 cbr 1000 ------- 2 1.1 1073741825.0 0 3
r 0.5216 4 7 cbr 1000 ------- 3 2.1 1073741826.0 0 6
+ 0.5216 7 11 cbr 1000 ------- 3 2.1 1073741826.0 0 6
- 0.5216 7 11 cbr 1000 ------- 3 2.1 1073741826.0 0 6
+ 0.5216 7 12 cbr 1000 ------- 3 2.1 1073741826.0 0 6
r 0.5216 5 9 cbr 1000 ------- 3 2.1 1073741826.0 0 6
+ 0.5216 9 14 cbr 1000 ------- 3 2.1 1073741826.0 0 6
- 0.5216 9 14 cbr 1000 ------- 3 2.1 1073741826.0 0 6
r 0.521664 0 1 prune 80 ------- 30 0.0 1.0 -1 11
r 0.521664 0 2 prune 80 ------- 30 0.0 2.0 -1 12
r 0.5224 1 3 cbr 1000 ------- 3 2.1 1073741826.0 0 6
+ 0.5224 3 6 cbr 1000 ------- 3 2.1 1073741826.0 0 6
r 0.5224 1 4 cbr 1000 ------- 1 0.1 1073741824.0 1 1
+ 0.5224 4 8 cbr 1000 ------- 1 0.1 1073741824.0 1 1
r 0.5224 2 5 cbr 1000 ------- 2 1.1 1073741825.0 0 3
+ 0.5224 5 9 cbr 1000 ------- 2 1.1 1073741825.0 0 3
r 0.5224 3 6 cbr 1000 ------- 2 1.1 1073741825.0 1 4
+ 0.5224 6 10 cbr 1000 ------- 2 1.1 1073741825.0 1 4
+ 0.5224 6 11 cbr 1000 ------- 2 1.1 1073741825.0 1 4
r 0.5224 3 7 cbr 1000 ------- 2 1.1 1073741825.0 1 4
+ 0.5224 7 12 cbr 1000 ------- 2 1.1 1073741825.0 1 4
r 0.5224 4 8 cbr 1000 ------- 3 2.1 1073741826.0 0 6
+ 0.5224 8 13 cbr 1000 ------- 3 2.1 1073741826.0 0 6
r 0.5224 4 7 cbr 1000 ------- 3 2.1 1073741826.0 1 7
+ 0.5224 7 11 cbr 1000 ------- 3 2.1 1073741826.0 1 7
+ 0.5224 7 12 cbr 1000 ------- 3 2.1 1073741826.0 1 7
r 0.5224 5 9 cbr 1000 ------- 3 2.1 1073741826.0 1 7
+ 0.5224 9 14 cbr 1000 ------- 3 2.1 1073741826.0 1 7
- 0.5224 3 6 cbr 1000 ------- 3 2.1 1073741826.0 0 6
- 0.5224 4 8 cbr 1000 ------- 1 0.1 1073741824.0 1 1
- 0.5224 5 9 cbr 1000 ------- 2 1.1 1073741825.0 0 3
- 0.5224 6 10 cbr 1000 ------- 2 1.1 1073741825.0 1 4
- 0.5224 6 11 cbr 1000 ------- 2 1.1 1073741825.0 1 4
- 0.5224 7 12 cbr 1000 ------- 3 2.1 1073741826.0 0 6
- 0.5224 8 13 cbr 1000 ------- 3 2.1 1073741826.0 0 6
- 0.5224 7 11 cbr 1000 ------- 3 2.1 1073741826.0 1 7
- 0.5224 9 14 cbr 1000 ------- 3 2.1 1073741826.0 1 7
r 0.522464 0 1 prune 80 ------- 30 0.0 1.0 -1 13
r 0.522464 0 2 prune 80 ------- 30 0.0 2.0 -1 14
r 0.5232 1 3 cbr 1000 ------- 1 0.1 1073741824.0 1 1
+ 0.5232 3 6 cbr 1000 ------- 1 0.1 1073741824.0 1 1
+ 0.5232 3 7 cbr 1000 ------- 1 0.1 1073741824.0 1 1
- 0.5232 3 7 cbr 1000 ------- 1 0.1 1073741824.0 1 1
r 0.5232 1 4 cbr 1000 ------- 1 0.1 1073741824.0 2 2
+ 0.5232 4 8 cbr 1000 ------- 1 0.1 1073741824.0 2 2
r 0.5232 2 5 cbr 1000 ------- 1 0.1 1073741824.0 1 1
+ 0.5232 5 9 cbr 1000 ------- 1 0.1 1073741824.0 1 1
r 0.5232 3 6 cbr 1000 ------- 2 1.1 1073741825.0 2 5
+ 0.5232 6 10 cbr 1000 ------- 2 1.1 1073741825.0 2 5
+ 0.5232 6 11 cbr 1000 ------- 2 1.1 1073741825.0 2 5
r 0.5232 3 7 cbr 1000 ------- 2 1.1 1073741825.0 2 5
+ 0.5232 7 12 cbr 1000 ------- 2 1.1 1073741825.0 2 5
r 0.5232 4 8 cbr 1000 ------- 2 1.1 1073741825.0 1 4
+ 0.5232 8 13 cbr 1000 ------- 2 1.1 1073741825.0 1 4
r 0.5232 4 7 cbr 1000 ------- 3 2.1 1073741826.0 2 8
+ 0.5232 7 11 cbr 1000 ------- 3 2.1 1073741826.0 2 8
+ 0.5232 7 12 cbr 1000 ------- 3 2.1 1073741826.0 2 8
r 0.5232 5 9 cbr 1000 ------- 3 2.1 1073741826.0 2 8
+ 0.5232 9 14 cbr 1000 ------- 3 2.1 1073741826.0 2 8
- 0.5232 3 6 cbr 1000 ------- 1 0.1 1073741824.0 1 1
- 0.5232 4 8 cbr 1000 ------- 1 0.1 1073741824.0 2 2
- 0.5232 5 9 cbr 1000 ------- 1 0.1 1073741824.0 1 1
- 0.5232 6 10 cbr 1000 ------- 2 1.1 1073741825.0 2 5
- 0.5232 6 11 cbr 1000 ------- 2 1.1 1073741825.0 2 5
- 0.5232 7 12 cbr 1000 ------- 2 1.1 1073741825.0 1 4
- 0.5232 8 13 cbr 1000 ------- 2 1.1 1073741825.0 1 4
- 0.5232 7 11 cbr 1000 ------- 3 2.1 1073741826.0 2 8
- 0.5232 9 14 cbr 1000 ------- 3 2.1 1073741826.0 2 8
r 0.524 1 3 cbr 1000 ------- 3 2.1 1073741826.0 1 7
+ 0.524 3 6 cbr 1000 ------- 3 2.1 1073741826.0 1 7
r 0.524 2 5 cbr 1000 ------- 2 1.1 1073741825.0 1 4
+ 0.524 5 9 cbr 1000 ------- 2 1.1 1073741825.0 1 4
r 0.524 4 8 cbr 1000 ------- 3 2.1 1073741826.0 1 7
+ 0.524 8 13 cbr 1000 ------- 3 2.1 1073741826.0 1 7
- 0.524 3 6 cbr 1000 ------- 3 2.1 1073741826.0 1 7
- 0.524 5 9 cbr 1000 ------- 2 1.1 1073741825.0 1 4
- 0.524 7 12 cbr 1000 ------- 3 2.1 1073741826.0 1 7
- 0.524 8 13 cbr 1000 ------- 3 2.1 1073741826.0 1 7
r 0.5248 1 3 cbr 1000 ------- 1 0.1 1073741824.0 2 2
+ 0.5248 3 6 cbr 1000 ------- 1 0.1 1073741824.0 2 2
+ 0.5248 3 7 cbr 1000 ------- 1 0.1 1073741824.0 2 2
- 0.5248 3 7 cbr 1000 ------- 1 0.1 1073741824.0 2 2
r 0.5248 2 5 cbr 1000 ------- 1 0.1 1073741824.0 2 2
+ 0.5248 5 9 cbr 1000 ------- 1 0.1 1073741824.0 2 2
r 0.5248 4 8 cbr 1000 ------- 2 1.1 1073741825.0 2 5
+ 0.5248 8 13 cbr 1000 ------- 2 1.1 1073741825.0 2 5
- 0.5248 3 6 cbr 1000 ------- 1 0.1 1073741824.0 2 2
- 0.5248 5 9 cbr 1000 ------- 1 0.1 1073741824.0 2 2
- 0.5248 7 12 cbr 1000 ------- 2 1.1 1073741825.0 2 5
- 0.5248 8 13 cbr 1000 ------- 2 1.1 1073741825.0 2 5
r 0.5256 1 3 cbr 1000 ------- 3 2.1 1073741826.0 2 8
+ 0.5256 3 6 cbr 1000 ------- 3 2.1 1073741826.0 2 8
r 0.5256 2 5 cbr 1000 ------- 2 1.1 1073741825.0 2 5
+ 0.5256 5 9 cbr 1000 ------- 2 1.1 1073741825.0 2 5
r 0.5256 4 8 cbr 1000 ------- 3 2.1 1073741826.0 2 8
+ 0.5256 8 13 cbr 1000 ------- 3 2.1 1073741826.0 2 8
- 0.5256 3 6 cbr 1000 ------- 3 2.1 1073741826.0 2 8
- 0.5256 5 9 cbr 1000 ------- 2 1.1 1073741825.0 2 5
- 0.5256 7 12 cbr 1000 ------- 3 2.1 1073741826.0 2 8
- 0.5256 8 13 cbr 1000 ------- 3 2.1 1073741826.0 2 8
r 0.5324 3 6 cbr 1000 ------- 1 0.1 1073741824.0 0 0
+ 0.5324 6 10 cbr 1000 ------- 1 0.1 1073741824.0 0 0
- 0.5324 6 10 cbr 1000 ------- 1 0.1 1073741824.0 0 0
+ 0.5324 6 11 cbr 1000 ------- 1 0.1 1073741824.0 0 0
- 0.5324 6 11 cbr 1000 ------- 1 0.1 1073741824.0 0 0
r 0.5324 3 7 cbr 1000 ------- 1 0.1 1073741824.0 0 0
+ 0.5324 7 12 cbr 1000 ------- 1 0.1 1073741824.0 0 0
- 0.5324 7 12 cbr 1000 ------- 1 0.1 1073741824.0 0 0
r 0.5324 4 8 cbr 1000 ------- 1 0.1 1073741824.0 0 0
+ 0.5324 8 13 cbr 1000 ------- 1 0.1 1073741824.0 0 0
- 0.5324 8 13 cbr 1000 ------- 1 0.1 1073741824.0 0 0
r 0.5324 5 9 cbr 1000 ------- 1 0.1 1073741824.0 0 0
+ 0.5324 9 14 cbr 1000 ------- 1 0.1 1073741824.0 0 0
- 0.5324 9 14 cbr 1000 ------- 1 0.1 1073741824.0 0 0
r 0.5324 6 10 cbr 1000 ------- 2 1.1 1073741825.0 0 3
+ 0.5324 10 6 prune 80 ------- 30 10.0 6.0 -1 15
- 0.5324 10 6 prune 80 ------- 30 10.0 6.0 -1 15
r 0.5324 6 11 cbr 1000 ------- 2 1.1 1073741825.0 0 3
+ 0.5324 11 6 prune 80 ------- 30 11.0 6.0 -1 16
- 0.5324 11 6 prune 80 ------- 30 11.0 6.0 -1 16
r 0.5324 7 12 cbr 1000 ------- 2 1.1 1073741825.0 0 3
+ 0.5324 12 7 prune 80 ------- 30 12.0 7.0 -1 17
- 0.5324 12 7 prune 80 ------- 30 12.0 7.0 -1 17
r 0.5324 8 13 cbr 1000 ------- 2 1.1 1073741825.0 0 3
+ 0.5324 13 8 prune 80 ------- 30 13.0 8.0 -1 18
- 0.5324 13 8 prune 80 ------- 30 13.0 8.0 -1 18
r 0.5324 7 11 cbr 1000 ------- 3 2.1 1073741826.0 0 6
+ 0.5324 11 7 prune 80 ------- 30 11.0 7.0 -1 19
- 0.5324 11 7 prune 80 ------- 30 11.0 7.0 -1 19
r 0.5324 9 14 cbr 1000 ------- 3 2.1 1073741826.0 0 6
+ 0.5324 14 9 prune 80 ------- 30 14.0 9.0 -1 20
- 0.5324 14 9 prune 80 ------- 30 14.0 9.0 -1 20
r 0.5332 3 6 cbr 1000 ------- 3 2.1 1073741826.0 0 6
+ 0.5332 6 10 cbr 1000 ------- 3 2.1 1073741826.0 0 6
r 0.5332 4 8 cbr 1000 ------- 1 0.1 1073741824.0 1 1
+ 0.5332 8 13 cbr 1000 ------- 1 0.1 1073741824.0 1 1
r 0.5332 5 9 cbr 1000 ------- 2 1.1 1073741825.0 0 3
+ 0.5332 9 14 cbr 1000 ------- 2 1.1 1073741825.0 0 3
r 0.5332 6 10 cbr 1000 ------- 2 1.1 1073741825.0 1 4
+ 0.5332 10 6 prune 80 ------- 30 10.0 6.0 -1 21
- 0.5332 10 6 prune 80 ------- 30 10.0 6.0 -1 21
r 0.5332 6 11 cbr 1000 ------- 2 1.1 1073741825.0 1 4
+ 0.5332 11 6 prune 80 ------- 30 11.0 6.0 -1 22
- 0.5332 11 6 prune 80 ------- 30 11.0 6.0 -1 22
r 0.5332 7 12 cbr 1000 ------- 3 2.1 1073741826.0 0 6
+ 0.5332 12 7 prune 80 ------- 30 12.0 7.0 -1 23
- 0.5332 12 7 prune 80 ------- 30 12.0 7.0 -1 23
r 0.5332 8 13 cbr 1000 ------- 3 2.1 1073741826.0 0 6
+ 0.5332 13 8 prune 80 ------- 30 13.0 8.0 -1 24
- 0.5332 13 8 prune 80 ------- 30 13.0 8.0 -1 24
r 0.5332 7 11 cbr 1000 ------- 3 2.1 1073741826.0 1 7
+ 0.5332 11 7 prune 80 ------- 30 11.0 7.0 -1 25
- 0.5332 11 7 prune 80 ------- 30 11.0 7.0 -1 25
r 0.5332 9 14 cbr 1000 ------- 3 2.1 1073741826.0 1 7
+ 0.5332 14 9 prune 80 ------- 30 14.0 9.0 -1 26
- 0.5332 14 9 prune 80 ------- 30 14.0 9.0 -1 26
- 0.5332 6 10 cbr 1000 ------- 3 2.1 1073741826.0 0 6
- 0.5332 8 13 cbr 1000 ------- 1 0.1 1073741824.0 1 1
- 0.5332 9 14 cbr 1000 ------- 2 1.1 1073741825.0 0 3
r 0.534 3 7 cbr 1000 ------- 1 0.1 1073741824.0 1 1
+ 0.534 7 12 cbr 1000 ------- 1 0.1 1073741824.0 1 1
- 0.534 7 12 cbr 1000 ------- 1 0.1 1073741824.0 1 1
r 0.534 3 6 cbr 1000 ------- 1 0.1 1073741824.0 1 1
+ 0.534 6 10 cbr 1000 ------- 1 0.1 1073741824.0 1 1
+ 0.534 6 11 cbr 1000 ------- 1 0.1 1073741824.0 1 1
- 0.534 6 11 cbr 1000 ------- 1 0.1 1073741824.0 1 1
r 0.534 4 8 cbr 1000 ------- 1 0.1 1073741824.0 2 2
+ 0.534 8 13 cbr 1000 ------- 1 0.1 1073741824.0 2 2
r 0.534 5 9 cbr 1000 ------- 1 0.1 1073741824.0 1 1
+ 0.534 9 14 cbr 1000 ------- 1 0.1 1073741824.0 1 1
r 0.534 6 10 cbr 1000 ------- 2 1.1 1073741825.0 2 5
+ 0.534 10 6 prune 80 ------- 30 10.0 6.0 -1 27
- 0.534 10 6 prune 80 ------- 30 10.0 6.0 -1 27
r 0.534 6 11 cbr 1000 ------- 2 1.1 1073741825.0 2 5
+ 0.534 11 6 prune 80 ------- 30 11.0 6.0 -1 28
- 0.534 11 6 prune 80 ------- 30 11.0 6.0 -1 28
r 0.534 7 12 cbr 1000 ------- 2 1.1 1073741825.0 1 4
+ 0.534 12 7 prune 80 ------- 30 12.0 7.0 -1 29
- 0.534 12 7 prune 80 ------- 30 12.0 7.0 -1 29
r 0.534 8 13 cbr 1000 ------- 2 1.1 1073741825.0 1 4
+ 0.534 13 8 prune 80 ------- 30 13.0 8.0 -1 30
- 0.534 13 8 prune 80 ------- 30 13.0 8.0 -1 30
r 0.534 7 11 cbr 1000 ------- 3 2.1 1073741826.0 2 8
+ 0.534 11 7 prune 80 ------- 30 11.0 7.0 -1 31
- 0.534 11 7 prune 80 ------- 30 11.0 7.0 -1 31
r 0.534 9 14 cbr 1000 ------- 3 2.1 1073741826.0 2 8
+ 0.534 14 9 prune 80 ------- 30 14.0 9.0 -1 32
- 0.534 14 9 prune 80 ------- 30 14.0 9.0 -1 32
- 0.534 6 10 cbr 1000 ------- 1 0.1 1073741824.0 1 1
- 0.534 8 13 cbr 1000 ------- 1 0.1 1073741824.0 2 2
- 0.534 9 14 cbr 1000 ------- 1 0.1 1073741824.0 1 1
r 0.5348 3 6 cbr 1000 ------- 3 2.1 1073741826.0 1 7
+ 0.5348 6 10 cbr 1000 ------- 3 2.1 1073741826.0 1 7
r 0.5348 5 9 cbr 1000 ------- 2 1.1 1073741825.0 1 4
+ 0.5348 9 14 cbr 1000 ------- 2 1.1 1073741825.0 1 4
r 0.5348 7 12 cbr 1000 ------- 3 2.1 1073741826.0 1 7
+ 0.5348 12 7 prune 80 ------- 30 12.0 7.0 -1 33
- 0.5348 12 7 prune 80 ------- 30 12.0 7.0 -1 33
r 0.5348 8 13 cbr 1000 ------- 3 2.1 1073741826.0 1 7
+ 0.5348 13 8 prune 80 ------- 30 13.0 8.0 -1 34
- 0.5348 13 8 prune 80 ------- 30 13.0 8.0 -1 34
- 0.5348 6 10 cbr 1000 ------- 3 2.1 1073741826.0 1 7
- 0.5348 9 14 cbr 1000 ------- 2 1.1 1073741825.0 1 4
r 0.5356 3 7 cbr 1000 ------- 1 0.1 1073741824.0 2 2
+ 0.5356 7 12 cbr 1000 ------- 1 0.1 1073741824.0 2 2
- 0.5356 7 12 cbr 1000 ------- 1 0.1 1073741824.0 2 2
r 0.5356 3 6 cbr 1000 ------- 1 0.1 1073741824.0 2 2
+ 0.5356 6 10 cbr 1000 ------- 1 0.1 1073741824.0 2 2
+ 0.5356 6 11 cbr 1000 ------- 1 0.1 1073741824.0 2 2
- 0.5356 6 11 cbr 1000 ------- 1 0.1 1073741824.0 2 2
r 0.5356 5 9 cbr 1000 ------- 1 0.1 1073741824.0 2 2
+ 0.5356 9 14 cbr 1000 ------- 1 0.1 1073741824.0 2 2
r 0.5356 7 12 cbr 1000 ------- 2 1.1 1073741825.0 2 5
+ 0.5356 12 7 prune 80 ------- 30 12.0 7.0 -1 35
- 0.5356 12 7 prune 80 ------- 30 12.0 7.0 -1 35
r 0.5356 8 13 cbr 1000 ------- 2 1.1 1073741825.0 2 5
+ 0.5356 13 8 prune 80 ------- 30 13.0 8.0 -1 36
- 0.5356 13 8 prune 80 ------- 30 13.0 8.0 -1 36
- 0.5356 6 10 cbr 1000 ------- 1 0.1 1073741824.0 2 2
- 0.5356 9 14 cbr 1000 ------- 1 0.1 1073741824.0 2 2
r 0.5364 3 6 cbr 1000 ------- 3 2.1 1073741826.0 2 8
+ 0.5364 6 10 cbr 1000 ------- 3 2.1 1073741826.0 2 8
r 0.5364 5 9 cbr 1000 ------- 2 1.1 1073741825.0 2 5
+ 0.5364 9 14 cbr 1000 ------- 2 1.1 1073741825.0 2 5
r 0.5364 7 12 cbr 1000 ------- 3 2.1 1073741826.0 2 8
+ 0.5364 12 7 prune 80 ------- 30 12.0 7.0 -1 37
- 0.5364 12 7 prune 80 ------- 30 12.0 7.0 -1 37
r 0.5364 8 13 cbr 1000 ------- 3 2.1 1073741826.0 2 8
+ 0.5364 13 8 prune 80 ------- 30 13.0 8.0 -1 38
- 0.5364 13 8 prune 80 ------- 30 13.0 8.0 -1 38
- 0.5364 6 10 cbr 1000 ------- 3 2.1 1073741826.0 2 8
- 0.5364 9 14 cbr 1000 ------- 2 1.1 1073741825.0 2 5
r 0.542464 10 6 prune 80 ------- 30 10.0 6.0 -1 15
r 0.542464 11 6 prune 80 ------- 30 11.0 6.0 -1 16
+ 0.542464 6 3 prune 80 ------- 30 6.0 3.0 -1 39
- 0.542464 6 3 prune 80 ------- 30 6.0 3.0 -1 39
r 0.542464 12 7 prune 80 ------- 30 12.0 7.0 -1 17
+ 0.542464 7 3 prune 80 ------- 30 7.0 3.0 -1 40
- 0.542464 7 3 prune 80 ------- 30 7.0 3.0 -1 40
r 0.542464 13 8 prune 80 ------- 30 13.0 8.0 -1 18
+ 0.542464 8 4 prune 80 ------- 30 8.0 4.0 -1 41
- 0.542464 8 4 prune 80 ------- 30 8.0 4.0 -1 41
r 0.542464 11 7 prune 80 ------- 30 11.0 7.0 -1 19
r 0.542464 14 9 prune 80 ------- 30 14.0 9.0 -1 20
+ 0.542464 9 5 prune 80 ------- 30 9.0 5.0 -1 42
- 0.542464 9 5 prune 80 ------- 30 9.0 5.0 -1 42
r 0.5432 6 10 cbr 1000 ------- 1 0.1 1073741824.0 0 0
+ 0.5432 10 6 prune 80 ------- 30 10.0 6.0 -1 43
- 0.5432 10 6 prune 80 ------- 30 10.0 6.0 -1 43
r 0.5432 6 11 cbr 1000 ------- 1 0.1 1073741824.0 0 0
+ 0.5432 11 6 prune 80 ------- 30 11.0 6.0 -1 44
- 0.5432 11 6 prune 80 ------- 30 11.0 6.0 -1 44
r 0.5432 7 12 cbr 1000 ------- 1 0.1 1073741824.0 0 0
+ 0.5432 12 7 prune 80 ------- 30 12.0 7.0 -1 45
- 0.5432 12 7 prune 80 ------- 30 12.0 7.0 -1 45
r 0.5432 8 13 cbr 1000 ------- 1 0.1 1073741824.0 0 0
+ 0.5432 13 8 prune 80 ------- 30 13.0 8.0 -1 46
- 0.5432 13 8 prune 80 ------- 30 13.0 8.0 -1 46
r 0.5432 9 14 cbr 1000 ------- 1 0.1 1073741824.0 0 0
+ 0.5432 14 9 prune 80 ------- 30 14.0 9.0 -1 47
- 0.5432 14 9 prune 80 ------- 30 14.0 9.0 -1 47
r 0.543264 10 6 prune 80 ------- 30 10.0 6.0 -1 21
r 0.543264 11 6 prune 80 ------- 30 11.0 6.0 -1 22
r 0.543264 12 7 prune 80 ------- 30 12.0 7.0 -1 23
+ 0.543264 7 4 prune 80 ------- 30 7.0 4.0 -1 48
- 0.543264 7 4 prune 80 ------- 30 7.0 4.0 -1 48
r 0.543264 13 8 prune 80 ------- 30 13.0 8.0 -1 24
+ 0.543264 8 4 prune 80 ------- 30 8.0 4.0 -1 49
- 0.543264 8 4 prune 80 ------- 30 8.0 4.0 -1 49
r 0.543264 11 7 prune 80 ------- 30 11.0 7.0 -1 25
r 0.543264 14 9 prune 80 ------- 30 14.0 9.0 -1 26
r 0.544 6 10 cbr 1000 ------- 3 2.1 1073741826.0 0 6
+ 0.544 10 6 prune 80 ------- 30 10.0 6.0 -1 50
- 0.544 10 6 prune 80 ------- 30 10.0 6.0 -1 50
r 0.544 8 13 cbr 1000 ------- 1 0.1 1073741824.0 1 1
+ 0.544 13 8 prune 80 ------- 30 13.0 8.0 -1 51
- 0.544 13 8 prune 80 ------- 30 13.0 8.0 -1 51
r 0.544 9 14 cbr 1000 ------- 2 1.1 1073741825.0 0 3
+ 0.544 14 9 prune 80 ------- 30 14.0 9.0 -1 52
- 0.544 14 9 prune 80 ------- 30 14.0 9.0 -1 52
r 0.544064 10 6 prune 80 ------- 30 10.0 6.0 -1 27
r 0.544064 11 6 prune 80 ------- 30 11.0 6.0 -1 28
r 0.544064 12 7 prune 80 ------- 30 12.0 7.0 -1 29
r 0.544064 13 8 prune 80 ------- 30 13.0 8.0 -1 30
r 0.544064 11 7 prune 80 ------- 30 11.0 7.0 -1 31
r 0.544064 14 9 prune 80 ------- 30 14.0 9.0 -1 32
r 0.5448 7 12 cbr 1000 ------- 1 0.1 1073741824.0 1 1
+ 0.5448 12 7 prune 80 ------- 30 12.0 7.0 -1 53
- 0.5448 12 7 prune 80 ------- 30 12.0 7.0 -1 53
r 0.5448 6 11 cbr 1000 ------- 1 0.1 1073741824.0 1 1
+ 0.5448 11 6 prune 80 ------- 30 11.0 6.0 -1 54
- 0.5448 11 6 prune 80 ------- 30 11.0 6.0 -1 54
r 0.5448 6 10 cbr 1000 ------- 1 0.1 1073741824.0 1 1
+ 0.5448 10 6 prune 80 ------- 30 10.0 6.0 -1 55
- 0.5448 10 6 prune 80 ------- 30 10.0 6.0 -1 55
r 0.5448 8 13 cbr 1000 ------- 1 0.1 1073741824.0 2 2
+ 0.5448 13 8 prune 80 ------- 30 13.0 8.0 -1 56
- 0.5448 13 8 prune 80 ------- 30 13.0 8.0 -1 56
r 0.5448 9 14 cbr 1000 ------- 1 0.1 1073741824.0 1 1
+ 0.5448 14 9 prune 80 ------- 30 14.0 9.0 -1 57
- 0.5448 14 9 prune 80 ------- 30 14.0 9.0 -1 57
r 0.544864 12 7 prune 80 ------- 30 12.0 7.0 -1 33
r 0.544864 13 8 prune 80 ------- 30 13.0 8.0 -1 34
r 0.5456 6 10 cbr 1000 ------- 3 2.1 1073741826.0 1 7
+ 0.5456 10 6 prune 80 ------- 30 10.0 6.0 -1 58
- 0.5456 10 6 prune 80 ------- 30 10.0 6.0 -1 58
r 0.5456 9 14 cbr 1000 ------- 2 1.1 1073741825.0 1 4
+ 0.5456 14 9 prune 80 ------- 30 14.0 9.0 -1 59
- 0.5456 14 9 prune 80 ------- 30 14.0 9.0 -1 59
r 0.545664 12 7 prune 80 ------- 30 12.0 7.0 -1 35
r 0.545664 13 8 prune 80 ------- 30 13.0 8.0 -1 36
r 0.5464 7 12 cbr 1000 ------- 1 0.1 1073741824.0 2 2
+ 0.5464 12 7 prune 80 ------- 30 12.0 7.0 -1 60
- 0.5464 12 7 prune 80 ------- 30 12.0 7.0 -1 60
r 0.5464 6 11 cbr 1000 ------- 1 0.1 1073741824.0 2 2
+ 0.5464 11 6 prune 80 ------- 30 11.0 6.0 -1 61
- 0.5464 11 6 prune 80 ------- 30 11.0 6.0 -1 61
r 0.5464 6 10 cbr 1000 ------- 1 0.1 1073741824.0 2 2
+ 0.5464 10 6 prune 80 ------- 30 10.0 6.0 -1 62
- 0.5464 10 6 prune 80 ------- 30 10.0 6.0 -1 62
r 0.5464 9 14 cbr 1000 ------- 1 0.1 1073741824.0 2 2
+ 0.5464 14 9 prune 80 ------- 30 14.0 9.0 -1 63
- 0.5464 14 9 prune 80 ------- 30 14.0 9.0 -1 63
r 0.546464 12 7 prune 80 ------- 30 12.0 7.0 -1 37
r 0.546464 13 8 prune 80 ------- 30 13.0 8.0 -1 38
r 0.5472 6 10 cbr 1000 ------- 3 2.1 1073741826.0 2 8
+ 0.5472 10 6 prune 80 ------- 30 10.0 6.0 -1 64
- 0.5472 10 6 prune 80 ------- 30 10.0 6.0 -1 64
r 0.5472 9 14 cbr 1000 ------- 2 1.1 1073741825.0 2 5
+ 0.5472 14 9 prune 80 ------- 30 14.0 9.0 -1 65
- 0.5472 14 9 prune 80 ------- 30 14.0 9.0 -1 65
r 0.552528 6 3 prune 80 ------- 30 6.0 3.0 -1 39
r 0.552528 7 3 prune 80 ------- 30 7.0 3.0 -1 40
+ 0.552528 3 1 prune 80 ------- 30 3.0 1.0 -1 66
- 0.552528 3 1 prune 80 ------- 30 3.0 1.0 -1 66
r 0.552528 8 4 prune 80 ------- 30 8.0 4.0 -1 41
+ 0.552528 4 1 prune 80 ------- 30 4.0 1.0 -1 67
- 0.552528 4 1 prune 80 ------- 30 4.0 1.0 -1 67
r 0.552528 9 5 prune 80 ------- 30 9.0 5.0 -1 42
+ 0.552528 5 2 prune 80 ------- 30 5.0 2.0 -1 68
- 0.552528 5 2 prune 80 ------- 30 5.0 2.0 -1 68
r 0.553264 10 6 prune 80 ------- 30 10.0 6.0 -1 43
r 0.553264 11 6 prune 80 ------- 30 11.0 6.0 -1 44
+ 0.553264 6 3 prune 80 ------- 30 6.0 3.0 -1 69
- 0.553264 6 3 prune 80 ------- 30 6.0 3.0 -1 69
r 0.553264 12 7 prune 80 ------- 30 12.0 7.0 -1 45
+ 0.553264 7 3 prune 80 ------- 30 7.0 3.0 -1 70
- 0.553264 7 3 prune 80 ------- 30 7.0 3.0 -1 70
r 0.553264 13 8 prune 80 ------- 30 13.0 8.0 -1 46
+ 0.553264 8 4 prune 80 ------- 30 8.0 4.0 -1 71
- 0.553264 8 4 prune 80 ------- 30 8.0 4.0 -1 71
r 0.553264 14 9 prune 80 ------- 30 14.0 9.0 -1 47
+ 0.553264 9 5 prune 80 ------- 30 9.0 5.0 -1 72
- 0.553264 9 5 prune 80 ------- 30 9.0 5.0 -1 72
r 0.553328 7 4 prune 80 ------- 30 7.0 4.0 -1 48
r 0.553328 8 4 prune 80 ------- 30 8.0 4.0 -1 49
+ 0.553328 4 2 prune 80 ------- 30 4.0 2.0 -1 73
- 0.553328 4 2 prune 80 ------- 30 4.0 2.0 -1 73
+ 0.553571 0 1 cbr 1000 ------- 1 0.1 1073741824.0 3 74
- 0.553571 0 1 cbr 1000 ------- 1 0.1 1073741824.0 3 74
+ 0.553571 0 2 cbr 1000 ------- 1 0.1 1073741824.0 3 74
- 0.553571 0 2 cbr 1000 ------- 1 0.1 1073741824.0 3 74
+ 0.553571 0 1 cbr 1000 ------- 1 0.1 1073741824.0 4 75
+ 0.553571 0 2 cbr 1000 ------- 1 0.1 1073741824.0 4 75
+ 0.553571 0 1 cbr 1000 ------- 1 0.1 1073741824.0 5 76
+ 0.553571 0 2 cbr 1000 ------- 1 0.1 1073741824.0 5 76
+ 0.553571 1 2 cbr 1000 ------- 2 1.1 1073741825.0 3 77
- 0.553571 1 2 cbr 1000 ------- 2 1.1 1073741825.0 3 77
+ 0.553571 1 3 cbr 1000 ------- 2 1.1 1073741825.0 3 77
- 0.553571 1 3 cbr 1000 ------- 2 1.1 1073741825.0 3 77
+ 0.553571 1 4 cbr 1000 ------- 2 1.1 1073741825.0 3 77
- 0.553571 1 4 cbr 1000 ------- 2 1.1 1073741825.0 3 77
+ 0.553571 1 2 cbr 1000 ------- 2 1.1 1073741825.0 4 78
+ 0.553571 1 3 cbr 1000 ------- 2 1.1 1073741825.0 4 78
+ 0.553571 1 4 cbr 1000 ------- 2 1.1 1073741825.0 4 78
+ 0.553571 1 2 cbr 1000 ------- 2 1.1 1073741825.0 5 79
+ 0.553571 1 3 cbr 1000 ------- 2 1.1 1073741825.0 5 79
+ 0.553571 1 4 cbr 1000 ------- 2 1.1 1073741825.0 5 79
+ 0.553571 2 1 cbr 1000 ------- 3 2.1 1073741826.0 3 80
- 0.553571 2 1 cbr 1000 ------- 3 2.1 1073741826.0 3 80
+ 0.553571 2 4 cbr 1000 ------- 3 2.1 1073741826.0 3 80
- 0.553571 2 4 cbr 1000 ------- 3 2.1 1073741826.0 3 80
+ 0.553571 2 5 cbr 1000 ------- 3 2.1 1073741826.0 3 80
- 0.553571 2 5 cbr 1000 ------- 3 2.1 1073741826.0 3 80
+ 0.553571 2 1 cbr 1000 ------- 3 2.1 1073741826.0 4 81
+ 0.553571 2 4 cbr 1000 ------- 3 2.1 1073741826.0 4 81