+ 0.5 0 1 encap 1020 ------- 0 0.2 4.0 -1 1
- 0.5 0 1 encap 1020 ------- 0 0.2 4.0 -1 1
+ 0.5 0 1 encap 1020 ------- 0 0.2 4.0 -1 3
+ 0.5 0 1 encap 1020 ------- 0 0.2 4.0 -1 5
+ 0.5 1 4 encap 1020 ------- 0 1.2 4.0 -1 7
- 0.5 1 4 encap 1020 ------- 0 1.2 4.0 -1 7
+ 0.5 1 4 encap 1020 ------- 0 1.2 4.0 -1 9
+ 0.5 1 4 encap 1020 ------- 0 1.2 4.0 -1 11
+ 0.5 2 4 encap 1020 ------- 0 2.2 4.0 -1 13
- 0.5 2 4 encap 1020 ------- 0 2.2 4.0 -1 13
+ 0.5 2 4 encap 1020 ------- 0 2.2 4.0 -1 15
+ 0.5 2 4 encap 1020 ------- 0 2.2 4.0 -1 17
- 0.500816 0 1 encap 1020 ------- 0 0.2 4.0 -1 3
- 0.500816 1 4 encap 1020 ------- 0 1.2 4.0 -1 9
- 0.500816 2 4 encap 1020 ------- 0 2.2 4.0 -1 15
- 0.501632 0 1 encap 1020 ------- 0 0.2 4.0 -1 5
- 0.501632 1 4 encap 1020 ------- 0 1.2 4.0 -1 11
- 0.501632 2 4 encap 1020 ------- 0 2.2 4.0 -1 17
r 0.510816 0 1 encap 1020 ------- 0 0.2 4.0 -1 1
+ 0.510816 1 4 encap 1020 ------- 0 0.2 4.0 -1 1
- 0.510816 1 4 encap 1020 ------- 0 0.2 4.0 -1 1
r 0.510816 1 4 encap 1020 ------- 0 1.2 4.0 -1 7
r 0.510816 2 4 encap 1020 ------- 0 2.2 4.0 -1 13
r 0.511632 0 1 encap 1020 ------- 0 0.2 4.0 -1 3
+ 0.511632 1 4 encap 1020 ------- 0 0.2 4.0 -1 3
r 0.511632 1 4 encap 1020 ------- 0 1.2 4.0 -1 9
r 0.511632 2 4 encap 1020 ------- 0 2.2 4.0 -1 15
- 0.511632 1 4 encap 1020 ------- 0 0.2 4.0 -1 3
r 0.512448 0 1 encap 1020 ------- 0 0.2 4.0 -1 5
+ 0.512448 1 4 encap 1020 ------- 0 0.2 4.0 -1 5
r 0.512448 1 4 encap 1020 ------- 0 1.2 4.0 -1 11
r 0.512448 2 4 encap 1020 ------- 0 2.2 4.0 -1 17
- 0.512448 1 4 encap 1020 ------- 0 0.2 4.0 -1 5
r 0.521632 1 4 encap 1020 ------- 0 0.2 4.0 -1 1
r 0.522448 1 4 encap 1020 ------- 0 0.2 4.0 -1 3
r 0.523264 1 4 encap 1020 ------- 0 0.2 4.0 -1 5
+ 0.553571 0 1 encap 1020 ------- 0 0.2 4.0 -1 19
- 0.553571 0 1 encap 1020 ------- 0 0.2 4.0 -1 19
+ 0.553571 0 1 encap 1020 ------- 0 0.2 4.0 -1 21
+ 0.553571 0 1 encap 1020 ------- 0 0.2 4.0 -1 23
+ 0.553571 1 4 encap 1020 ------- 0 1.2 4.0 -1 25
- 0.553571 1 4 encap 1020 ------- 0 1.2 4.0 -1 25
+ 0.553571 1 4 encap 1020 ------- 0 1.2 4.0 -1 27
+ 0.553571 1 4 encap 1020 ------- 0 1.2 4.0 -1 29
+ 0.553571 2 4 encap 1020 ------- 0 2.2 4.0 -1 31
- 0.553571 2 4 encap 1020 ------- 0 2.2 4.0 -1 31
+ 0.553571 2 4 encap 1020 ------- 0 2.2 4.0 -1 33
+ 0.553571 2 4 encap 1020 ------- 0 2.2 4.0 -1 35
- 0.554387 0 1 encap 1020 ------- 0 0.2 4.0 -1 21
- 0.554387 1 4 encap 1020 ------- 0 1.2 4.0 -1 27
- 0.554387 2 4 encap 1020 ------- 0 2.2 4.0 -1 33
- 0.555203 0 1 encap 1020 ------- 0 0.2 4.0 -1 23
- 0.555203 1 4 encap 1020 ------- 0 1.2 4.0 -1 29
- 0.555203 2 4 encap 1020 ------- 0 2.2 4.0 -1 35
r 0.564387 0 1 encap 1020 ------- 0 0.2 4.0 -1 19
+ 0.564387 1 4 encap 1020 ------- 0 0.2 4.0 -1 19
- 0.564387 1 4 encap 1020 ------- 0 0.2 4.0 -1 19
r 0.564387 1 4 encap 1020 ------- 0 1.2 4.0 -1 25
r 0.564387 2 4 encap 1020 ------- 0 2.2 4.0 -1 31
r 0.565203 0 1 encap 1020 ------- 0 0.2 4.0 -1 21
+ 0.565203 1 4 encap 1020 ------- 0 0.2 4.0 -1 21
r 0.565203 1 4 encap 1020 ------- 0 1.2 4.0 -1 27
r 0.565203 2 4 encap 1020 ------- 0 2.2 4.0 -1 33
- 0.565203 1 4 encap 1020 ------- 0 0.2 4.0 -1 21
r 0.566019 0 1 encap 1020 ------- 0 0.2 4.0 -1 23
+ 0.566019 1 4 encap 1020 ------- 0 0.2 4.0 -1 23
r 0.566019 1 4 encap 1020 ------- 0 1.2 4.0 -1 29
r 0.566019 2 4 encap 1020 ------- 0 2.2 4.0 -1 35
- 0.566019 1 4 encap 1020 ------- 0 0.2 4.0 -1 23
r 0.575203 1 4 encap 1020 ------- 0 0.2 4.0 -1 19
r 0.576019 1 4 encap 1020 ------- 0 0.2 4.0 -1 21
r 0.576835 1 4 encap 1020 ------- 0 0.2 4.0 -1 23
+ 0.607143 0 1 encap 1020 ------- 0 0.2 4.0 -1 37
- 0.607143 0 1 encap 1020 ------- 0 0.2 4.0 -1 37
+ 0.607143 0 1 encap 1020 ------- 0 0.2 4.0 -1 39
+ 0.607143 0 1 encap 1020 ------- 0 0.2 4.0 -1 41
+ 0.607143 1 4 encap 1020 ------- 0 1.2 4.0 -1 43
- 0.607143 1 4 encap 1020 ------- 0 1.2 4.0 -1 43
+ 0.607143 1 4 encap 1020 ------- 0 1.2 4.0 -1 45
+ 0.607143 1 4 encap 1020 ------- 0 1.2 4.0 -1 47
+ 0.607143 2 4 encap 1020 ------- 0 2.2 4.0 -1 49
- 0.607143 2 4 encap 1020 ------- 0 2.2 4.0 -1 49
+ 0.607143 2 4 encap 1020 ------- 0 2.2 4.0 -1 51
+ 0.607143 2 4 encap 1020 ------- 0 2.2 4.0 -1 53
- 0.607959 0 1 encap 1020 ------- 0 0.2 4.0 -1 39
- 0.607959 1 4 encap 1020 ------- 0 1.2 4.0 -1 45
- 0.607959 2 4 encap 1020 ------- 0 2.2 4.0 -1 51
- 0.608775 0 1 encap 1020 ------- 0 0.2 4.0 -1 41
- 0.608775 1 4 encap 1020 ------- 0 1.2 4.0 -1 47
- 0.608775 2 4 encap 1020 ------- 0 2.2 4.0 -1 53
r 0.617959 0 1 encap 1020 ------- 0 0.2 4.0 -1 37
+ 0.617959 1 4 encap 1020 ------- 0 0.2 4.0 -1 37
- 0.617959 1 4 encap 1020 ------- 0 0.2 4.0 -1 37
r 0.617959 1 4 encap 1020 ------- 0 1.2 4.0 -1 43
r 0.617959 2 4 encap 1020 ------- 0 2.2 4.0 -1 49
r 0.618775 0 1 encap 1020 ------- 0 0.2 4.0 -1 39
+ 0.618775 1 4 encap 1020 ------- 0 0.2 4.0 -1 39
r 0.618775 1 4 encap 1020 ------- 0 1.2 4.0 -1 45
r 0.618775 2 4 encap 1020 ------- 0 2.2 4.0 -1 51
- 0.618775 1 4 encap 1020 ------- 0 0.2 4.0 -1 39
r 0.619591 0 1 encap 1020 ------- 0 0.2 4.0 -1 41
+ 0.619591 1 4 encap 1020 ------- 0 0.2 4.0 -1 41
r 0.619591 1 4 encap 1020 ------- 0 1.2 4.0 -1 47
r 0.619591 2 4 encap 1020 ------- 0 2.2 4.0 -1 53
- 0.619591 1 4 encap 1020 ------- 0 0.2 4.0 -1 41
r 0.628775 1 4 encap 1020 ------- 0 0.2 4.0 -1 37
r 0.629591 1 4 encap 1020 ------- 0 0.2 4.0 -1 39
r 0.630407 1 4 encap 1020 ------- 0 0.2 4.0 -1 41
+ 0.660714 0 1 encap 1020 ------- 0 0.2 4.0 -1 55
- 0.660714 0 1 encap 1020 ------- 0 0.2 4.0 -1 55
+ 0.660714 0 1 encap 1020 ------- 0 0.2 4.0 -1 57
+ 0.660714 0 1 encap 1020 ------- 0 0.2 4.0 -1 59
+ 0.660714 1 4 encap 1020 ------- 0 1.2 4.0 -1 61
- 0.660714 1 4 encap 1020 ------- 0 1.2 4.0 -1 61
+ 0.660714 1 4 encap 1020 ------- 0 1.2 4.0 -1 63
+ 0.660714 1 4 encap 1020 ------- 0 1.2 4.0 -1 65
+ 0.660714 2 4 encap 1020 ------- 0 2.2 4.0 -1 67
- 0.660714 2 4 encap 1020 ------- 0 2.2 4.0 -1 67
+ 0.660714 2 4 encap 1020 ------- 0 2.2 4.0 -1 69
+ 0.660714 2 4 encap 1020 ------- 0 2.2 4.0 -1 71
- 0.66153 0 1 encap 1020 ------- 0 0.2 4.0 -1 57
- 0.66153 1 4 encap 1020 ------- 0 1.2 4.0 -1 63
- 0.66153 2 4 encap 1020 ------- 0 2.2 4.0 -1 69
- 0.662346 0 1 encap 1020 ------- 0 0.2 4.0 -1 59
- 0.662346 1 4 encap 1020 ------- 0 1.2 4.0 -1 65
- 0.662346 2 4 encap 1020 ------- 0 2.2 4.0 -1 71
r 0.67153 0 1 encap 1020 ------- 0 0.2 4.0 -1 55
+ 0.67153 1 4 encap 1020 ------- 0 0.2 4.0 -1 55
- 0.67153 1 4 encap 1020 ------- 0 0.2 4.0 -1 55
r 0.67153 1 4 encap 1020 ------- 0 1.2 4.0 -1 61
r 0.67153 2 4 encap 1020 ------- 0 2.2 4.0 -1 67
r 0.672346 0 1 encap 1020 ------- 0 0.2 4.0 -1 57
+ 0.672346 1 4 encap 1020 ------- 0 0.2 4.0 -1 57
r 0.672346 1 4 encap 1020 ------- 0 1.2 4.0 -1 63
r 0.672346 2 4 encap 1020 ------- 0 2.2 4.0 -1 69
- 0.672346 1 4 encap 1020 ------- 0 0.2 4.0 -1 57
r 0.673162 0 1 encap 1020 ------- 0 0.2 4.0 -1 59
+ 0.673162 1 4 encap 1020 ------- 0 0.2 4.0 -1 59
r 0.673162 1 4 encap 1020 ------- 0 1.2 4.0 -1 65
r 0.673162 2 4 encap 1020 ------- 0 2.2 4.0 -1 71
- 0.673162 1 4 encap 1020 ------- 0 0.2 4.0 -1 59
r 0.682346 1 4 encap 1020 ------- 0 0.2 4.0 -1 55
r 0.683162 1 4 encap 1020 ------- 0 0.2 4.0 -1 57
r 0.683978 1 4 encap 1020 ------- 0 0.2 4.0 -1 59
+ 0.714286 0 1 encap 1020 ------- 0 0.2 4.0 -1 73
- 0.714286 0 1 encap 1020 ------- 0 0.2 4.0 -1 73
+ 0.714286 0 1 encap 1020 ------- 0 0.2 4.0 -1 75
+ 0.714286 0 1 encap 1020 ------- 0 0.2 4.0 -1 77
+ 0.714286 1 4 encap 1020 ------- 0 1.2 4.0 -1 79
- 0.714286 1 4 encap 1020 ------- 0 1.2 4.0 -1 79
+ 0.714286 1 4 encap 1020 ------- 0 1.2 4.0 -1 81
+ 0.714286 1 4 encap 1020 ------- 0 1.2 4.0 -1 83
+ 0.714286 2 4 encap 1020 ------- 0 2.2 4.0 -1 85
- 0.714286 2 4 encap 1020 ------- 0 2.2 4.0 -1 85
+ 0.714286 2 4 encap 1020 ------- 0 2.2 4.0 -1 87
+ 0.714286 2 4 encap 1020 ------- 0 2.2 4.0 -1 89
- 0.715102 0 1 encap 1020 ------- 0 0.2 4.0 -1 75
- 0.715102 1 4 encap 1020 ------- 0 1.2 4.0 -1 81
- 0.715102 2 4 encap 1020 ------- 0 2.2 4.0 -1 87
- 0.715918 0 1 encap 1020 ------- 0 0.2 4.0 -1 77
- 0.715918 1 4 encap 1020 ------- 0 1.2 4.0 -1 83
- 0.715918 2 4 encap 1020 ------- 0 2.2 4.0 -1 89
r 0.725102 0 1 encap 1020 ------- 0 0.2 4.0 -1 73
+ 0.725102 1 4 encap 1020 ------- 0 0.2 4.0 -1 73
- 0.725102 1 4 encap 1020 ------- 0 0.2 4.0 -1 73
r 0.725102 1 4 encap 1020 ------- 0 1.2 4.0 -1 79
r 0.725102 2 4 encap 1020 ------- 0 2.2 4.0 -1 85
r 0.725918 0 1 encap 1020 ------- 0 0.2 4.0 -1 75
+ 0.725918 1 4 encap 1020 ------- 0 0.2 4.0 -1 75
r 0.725918 1 4 encap 1020 ------- 0 1.2 4.0 -1 81
r 0.725918 2 4 encap 1020 ------- 0 2.2 4.0 -1 87
- 0.725918 1 4 encap 1020 ------- 0 0.2 4.0 -1 75
r 0.726734 0 1 encap 1020 ------- 0 0.2 4.0 -1 77
+ 0.726734 1 4 encap 1020 ------- 0 0.2 4.0 -1 77
r 0.726734 1 4 encap 1020 ------- 0 1.2 4.0 -1 83
r 0.726734 2 4 encap 1020 ------- 0 2.2 4.0 -1 89
- 0.726734 1 4 encap 1020 ------- 0 0.2 4.0 -1 77
r 0.735918 1 4 encap 1020 ------- 0 0.2 4.0 -1 73
r 0.736734 1 4 encap 1020 ------- 0 0.2 4.0 -1 75
r 0.73755 1 4 encap 1020 ------- 0 0.2 4.0 -1 77
+ 0.767857 0 1 encap 1020 ------- 0 0.2 4.0 -1 91
- 0.767857 0 1 encap 1020 ------- 0 0.2 4.0 -1 91
+ 0.767857 0 1 encap 1020 ------- 0 0.2 4.0 -1 93
+ 0.767857 0 1 encap 1020 ------- 0 0.2 4.0 -1 95
+ 0.767857 1 4 encap 1020 ------- 0 1.2 4.0 -1 97
- 0.767857 1 4 encap 1020 ------- 0 1.2 4.0 -1 97
+ 0.767857 1 4 encap 1020 ------- 0 1.2 4.0 -1 99
+ 0.767857 1 4 encap 1020 ------- 0 1.2 4.0 -1 101
+ 0.767857 2 4 encap 1020 ------- 0 2.2 4.0 -1 103
- 0.767857 2 4 encap 1020 ------- 0 2.2 4.0 -1 103
+ 0.767857 2 4 encap 1020 ------- 0 2.2 4.0 -1 105
+ 0.767857 2 4 encap 1020 ------- 0 2.2 4.0 -1 107
- 0.768673 0 1 encap 1020 ------- 0 0.2 4.0 -1 93
- 0.768673 1 4 encap 1020 ------- 0 1.2 4.0 -1 99
- 0.768673 2 4 encap 1020 ------- 0 2.2 4.0 -1 105
- 0.769489 0 1 encap 1020 ------- 0 0.2 4.0 -1 95
- 0.769489 1 4 encap 1020 ------- 0 1.2 4.0 -1 101
- 0.769489 2 4 encap 1020 ------- 0 2.2 4.0 -1 107
r 0.778673 0 1 encap 1020 ------- 0 0.2 4.0 -1 91
+ 0.778673 1 4 encap 1020 ------- 0 0.2 4.0 -1 91
- 0.778673 1 4 encap 1020 ------- 0 0.2 4.0 -1 91
r 0.778673 1 4 encap 1020 ------- 0 1.2 4.0 -1 97
r 0.778673 2 4 encap 1020 ------- 0 2.2 4.0 -1 103
r 0.779489 0 1 encap 1020 ------- 0 0.2 4.0 -1 93
+ 0.779489 1 4 encap 1020 ------- 0 0.2 4.0 -1 93
r 0.779489 1 4 encap 1020 ------- 0 1.2 4.0 -1 99
r 0.779489 2 4 encap 1020 ------- 0 2.2 4.0 -1 105
- 0.779489 1 4 encap 1020 ------- 0 0.2 4.0 -1 93
r 0.780305 0 1 encap 1020 ------- 0 0.2 4.0 -1 95
+ 0.780305 1 4 encap 1020 ------- 0 0.2 4.0 -1 95
r 0.780305 1 4 encap 1020 ------- 0 1.2 4.0 -1 101
r 0.780305 2 4 encap 1020 ------- 0 2.2 4.0 -1 107
- 0.780305 1 4 encap 1020 ------- 0 0.2 4.0 -1 95
r 0.789489 1 4 encap 1020 ------- 0 0.2 4.0 -1 91
r 0.790305 1 4 encap 1020 ------- 0 0.2 4.0 -1 93
r 0.791121 1 4 encap 1020 ------- 0 0.2 4.0 -1 95
+ 0.821429 0 1 encap 1020 ------- 0 0.2 4.0 -1 109
- 0.821429 0 1 encap 1020 ------- 0 0.2 4.0 -1 109
+ 0.821429 0 1 encap 1020 ------- 0 0.2 4.0 -1 111
+ 0.821429 0 1 encap 1020 ------- 0 0.2 4.0 -1 113
+ 0.821429 1 4 encap 1020 ------- 0 1.2 4.0 -1 115
- 0.821429 1 4 encap 1020 ------- 0 1.2 4.0 -1 115
+ 0.821429 1 4 encap 1020 ------- 0 1.2 4.0 -1 117
+ 0.821429 1 4 encap 1020 ------- 0 1.2 4.0 -1 119
+ 0.821429 2 4 encap 1020 ------- 0 2.2 4.0 -1 121
- 0.821429 2 4 encap 1020 ------- 0 2.2 4.0 -1 121
+ 0.821429 2 4 encap 1020 ------- 0 2.2 4.0 -1 123
+ 0.821429 2 4 encap 1020 ------- 0 2.2 4.0 -1 125
- 0.822245 0 1 encap 1020 ------- 0 0.2 4.0 -1 111
- 0.822245 1 4 encap 1020 ------- 0 1.2 4.0 -1 117
- 0.822245 2 4 encap 1020 ------- 0 2.2 4.0 -1 123
- 0.823061 0 1 encap 1020 ------- 0 0.2 4.0 -1 113
- 0.823061 1 4 encap 1020 ------- 0 1.2 4.0 -1 119
- 0.823061 2 4 encap 1020 ------- 0 2.2 4.0 -1 125
r 0.832245 0 1 encap 1020 ------- 0 0.2 4.0 -1 109
+ 0.832245 1 4 encap 1020 ------- 0 0.2 4.0 -1 109
- 0.832245 1 4 encap 1020 ------- 0 0.2 4.0 -1 109
r 0.832245 1 4 encap 1020 ------- 0 1.2 4.0 -1 115
r 0.832245 2 4 encap 1020 ------- 0 2.2 4.0 -1 121
r 0.833061 0 1 encap 1020 ------- 0 0.2 4.0 -1 111
+ 0.833061 1 4 encap 1020 ------- 0 0.2 4.0 -1 111
r 0.833061 1 4 encap 1020 ------- 0 1.2 4.0 -1 117
r 0.833061 2 4 encap 1020 ------- 0 2.2 4.0 -1 123
- 0.833061 1 4 encap 1020 ------- 0 0.2 4.0 -1 111
r 0.833877 0 1 encap 1020 ------- 0 0.2 4.0 -1 113
+ 0.833877 1 4 encap 1020 ------- 0 0.2 4.0 -1 113
r 0.833877 1 4 encap 1020 ------- 0 1.2 4.0 -1 119
r 0.833877 2 4 encap 1020 ------- 0 2.2 4.0 -1 125
- 0.833877 1 4 encap 1020 ------- 0 0.2 4.0 -1 113
r 0.843061 1 4 encap 1020 ------- 0 0.2 4.0 -1 109
r 0.843877 1 4 encap 1020 ------- 0 0.2 4.0 -1 111
r 0.844693 1 4 encap 1020 ------- 0 0.2 4.0 -1 113
+ 0.875 0 1 encap 1020 ------- 0 0.2 4.0 -1 127
- 0.875 0 1 encap 1020 ------- 0 0.2 4.0 -1 127
+ 0.875 0 1 encap 1020 ------- 0 0.2 4.0 -1 129
+ 0.875 0 1 encap 1020 ------- 0 0.2 4.0 -1 131
+ 0.875 1 4 encap 1020 ------- 0 1.2 4.0 -1 133
- 0.875 1 4 encap 1020 ------- 0 1.2 4.0 -1 133
+ 0.875 1 4 encap 1020 ------- 0 1.2 4.0 -1 135
+ 0.875 1 4 encap 1020 ------- 0 1.2 4.0 -1 137
+ 0.875 2 4 encap 1020 ------- 0 2.2 4.0 -1 139
- 0.875 2 4 encap 1020 ------- 0 2.2 4.0 -1 139
+ 0.875 2 4 encap 1020 ------- 0 2.2 4.0 -1 141
+ 0.875 2 4 encap 1020 ------- 0 2.2 4.0 -1 143
- 0.875816 0 1 encap 1020 ------- 0 0.2 4.0 -1 129
- 0.875816 1 4 encap 1020 ------- 0 1.2 4.0 -1 135
- 0.875816 2 4 encap 1020 ------- 0 2.2 4.0 -1 141
- 0.876632 0 1 encap 1020 ------- 0 0.2 4.0 -1 131
- 0.876632 1 4 encap 1020 ------- 0 1.2 4.0 -1 137
- 0.876632 2 4 encap 1020 ------- 0 2.2 4.0 -1 143
r 0.885816 0 1 encap 1020 ------- 0 0.2 4.0 -1 127
+ 0.885816 1 4 encap 1020 ------- 0 0.2 4.0 -1 127
- 0.885816 1 4 encap 1020 ------- 0 0.2 4.0 -1 127
r 0.885816 1 4 encap 1020 ------- 0 1.2 4.0 -1 133
r 0.885816 2 4 encap 1020 ------- 0 2.2 4.0 -1 139
r 0.886632 0 1 encap 1020 ------- 0 0.2 4.0 -1 129
+ 0.886632 1 4 encap 1020 ------- 0 0.2 4.0 -1 129
r 0.886632 1 4 encap 1020 ------- 0 1.2 4.0 -1 135
r 0.886632 2 4 encap 1020 ------- 0 2.2 4.0 -1 141
- 0.886632 1 4 encap 1020 ------- 0 0.2 4.0 -1 129
r 0.887448 0 1 encap 1020 ------- 0 0.2 4.0 -1 131
+ 0.887448 1 4 encap 1020 ------- 0 0.2 4.0 -1 131
r 0.887448 1 4 encap 1020 ------- 0 1.2 4.0 -1 137
r 0.887448 2 4 encap 1020 ------- 0 2.2 4.0 -1 143
- 0.887448 1 4 encap 1020 ------- 0 0.2 4.0 -1 131
r 0.896632 1 4 encap 1020 ------- 0 0.2 4.0 -1 127
r 0.897448 1 4 encap 1020 ------- 0 0.2 4.0 -1 129
r 0.898264 1 4 encap 1020 ------- 0 0.2 4.0 -1 131
+ 0.928571 0 1 encap 1020 ------- 0 0.2 4.0 -1 145
- 0.928571 0 1 encap 1020 ------- 0 0.2 4.0 -1 145
+ 0.928571 0 1 encap 1020 ------- 0 0.2 4.0 -1 147
+ 0.928571 0 1 encap 1020 ------- 0 0.2 4.0 -1 149
+ 0.928571 1 4 encap 1020 ------- 0 1.2 4.0 -1 151
- 0.928571 1 4 encap 1020 ------- 0 1.2 4.0 -1 151
+ 0.928571 1 4 encap 1020 ------- 0 1.2 4.0 -1 153
+ 0.928571 1 4 encap 1020 ------- 0 1.2 4.0 -1 155
+ 0.928571 2 4 encap 1020 ------- 0 2.2 4.0 -1 157
- 0.928571 2 4 encap 1020 ------- 0 2.2 4.0 -1 157
+ 0.928571 2 4 encap 1020 ------- 0 2.2 4.0 -1 159
+ 0.928571 2 4 encap 1020 ------- 0 2.2 4.0 -1 161
- 0.929387 0 1 encap 1020 ------- 0 0.2 4.0 -1 147
- 0.929387 1 4 encap 1020 ------- 0 1.2 4.0 -1 153
- 0.929387 2 4 encap 1020 ------- 0 2.2 4.0 -1 159
- 0.930203 0 1 encap 1020 ------- 0 0.2 4.0 -1 149
- 0.930203 1 4 encap 1020 ------- 0 1.2 4.0 -1 155
- 0.930203 2 4 encap 1020 ------- 0 2.2 4.0 -1 161
r 0.939387 0 1 encap 1020 ------- 0 0.2 4.0 -1 145
+ 0.939387 1 4 encap 1020 ------- 0 0.2 4.0 -1 145
- 0.939387 1 4 encap 1020 ------- 0 0.2 4.0 -1 145
r 0.939387 1 4 encap 1020 ------- 0 1.2 4.0 -1 151
r 0.939387 2 4 encap 1020 ------- 0 2.2 4.0 -1 157
r 0.940203 0 1 encap 1020 ------- 0 0.2 4.0 -1 147
+ 0.940203 1 4 encap 1020 ------- 0 0.2 4.0 -1 147
r 0.940203 1 4 encap 1020 ------- 0 1.2 4.0 -1 153
r 0.940203 2 4 encap 1020 ------- 0 2.2 4.0 -1 159
- 0.940203 1 4 encap 1020 ------- 0 0.2 4.0 -1 147
r 0.941019 0 1 encap 1020 ------- 0 0.2 4.0 -1 149
+ 0.941019 1 4 encap 1020 ------- 0 0.2 4.0 -1 149
r 0.941019 1 4 encap 1020 ------- 0 1.2 4.0 -1 155
r 0.941019 2 4 encap 1020 ------- 0 2.2 4.0 -1 161
- 0.941019 1 4 encap 1020 ------- 0 0.2 4.0 -1 149
r 0.950203 1 4 encap 1020 ------- 0 0.2 4.0 -1 145
r 0.951019 1 4 encap 1020 ------- 0 0.2 4.0 -1 147
r 0.951835 1 4 encap 1020 ------- 0 0.2 4.0 -1 149
+ 0.982143 0 1 encap 1020 ------- 0 0.2 4.0 -1 163
- 0.982143 0 1 encap 1020 ------- 0 0.2 4.0 -1 163
+ 0.982143 0 1 encap 1020 ------- 0 0.2 4.0 -1 165
+ 0.982143 0 1 encap 1020 ------- 0 0.2 4.0 -1 167
+ 0.982143 1 4 encap 1020 ------- 0 1.2 4.0 -1 169
- 0.982143 1 4 encap 1020 ------- 0 1.2 4.0 -1 169
+ 0.982143 1 4 encap 1020 ------- 0 1.2 4.0 -1 171
+ 0.982143 1 4 encap 1020 ------- 0 1.2 4.0 -1 173
+ 0.982143 2 4 encap 1020 ------- 0 2.2 4.0 -1 175
- 0.982143 2 4 encap 1020 ------- 0 2.2 4.0 -1 175
+ 0.982143 2 4 encap 1020 ------- 0 2.2 4.0 -1 177
+ 0.982143 2 4 encap 1020 ------- 0 2.2 4.0 -1 179
- 0.982959 0 1 encap 1020 ------- 0 0.2 4.0 -1 165
- 0.982959 1 4 encap 1020 ------- 0 1.2 4.0 -1 171
- 0.982959 2 4 encap 1020 ------- 0 2.2 4.0 -1 177
- 0.983775 0 1 encap 1020 ------- 0 0.2 4.0 -1 167
- 0.983775 1 4 encap 1020 ------- 0 1.2 4.0 -1 173
- 0.983775 2 4 encap 1020 ------- 0 2.2 4.0 -1 179
r 0.992959 0 1 encap 1020 ------- 0 0.2 4.0 -1 163
+ 0.992959 1 4 encap 1020 ------- 0 0.2 4.0 -1 163
- 0.992959 1 4 encap 1020 ------- 0 0.2 4.0 -1 163
r 0.992959 1 4 encap 1020 ------- 0 1.2 4.0 -1 169
r 0.992959 2 4 encap 1020 ------- 0 2.2 4.0 -1 175
r 0.993775 0 1 encap 1020 ------- 0 0.2 4.0 -1 165
+ 0.993775 1 4 encap 1020 ------- 0 0.2 4.0 -1 165
r 0.993775 1 4 encap 1020 ------- 0 1.2 4.0 -1 171
r 0.993775 2 4 encap 1020 ------- 0 2.2 4.0 -1 177
- 0.993775 1 4 encap 1020 ------- 0 0.2 4.0 -1 165
r 0.994591 0 1 encap 1020 ------- 0 0.2 4.0 -1 167
+ 0.994591 1 4 encap 1020 ------- 0 0.2 4.0 -1 167
r 0.994591 1 4 encap 1020 ------- 0 1.2 4.0 -1 173
r 0.994591 2 4 encap 1020 ------- 0 2.2 4.0 -1 179
- 0.994591 1 4 encap 1020 ------- 0 0.2 4.0 -1 167
v 1 eval {set sim_annotation {1 3 join-group 1073741825}}
r 1.003775 1 4 encap 1020 ------- 0 0.2 4.0 -1 163
r 1.004591 1 4 encap 1020 ------- 0 0.2 4.0 -1 165
r 1.005407 1 4 encap 1020 ------- 0 0.2 4.0 -1 167
+ 1.035714 0 1 encap 1020 ------- 0 0.2 4.0 -1 181
- 1.035714 0 1 encap 1020 ------- 0 0.2 4.0 -1 181
+ 1.035714 0 1 encap 1020 ------- 0 0.2 4.0 -1 183
+ 1.035714 0 1 encap 1020 ------- 0 0.2 4.0 -1 185
+ 1.035714 1 4 encap 1020 ------- 0 1.2 4.0 -1 187
- 1.035714 1 4 encap 1020 ------- 0 1.2 4.0 -1 187
+ 1.035714 1 4 encap 1020 ------- 0 1.2 4.0 -1 189
+ 1.035714 1 4 encap 1020 ------- 0 1.2 4.0 -1 191
+ 1.035714 2 4 encap 1020 ------- 0 2.2 4.0 -1 193
- 1.035714 2 4 encap 1020 ------- 0 2.2 4.0 -1 193
+ 1.035714 2 4 encap 1020 ------- 0 2.2 4.0 -1 195
+ 1.035714 2 4 encap 1020 ------- 0 2.2 4.0 -1 197
- 1.03653 0 1 encap 1020 ------- 0 0.2 4.0 -1 183
- 1.03653 1 4 encap 1020 ------- 0 1.2 4.0 -1 189
- 1.03653 2 4 encap 1020 ------- 0 2.2 4.0 -1 195
- 1.037346 0 1 encap 1020 ------- 0 0.2 4.0 -1 185
- 1.037346 1 4 encap 1020 ------- 0 1.2 4.0 -1 191
- 1.037346 2 4 encap 1020 ------- 0 2.2 4.0 -1 197
r 1.04653 0 1 encap 1020 ------- 0 0.2 4.0 -1 181
+ 1.04653 1 4 encap 1020 ------- 0 0.2 4.0 -1 181
- 1.04653 1 4 encap 1020 ------- 0 0.2 4.0 -1 181
r 1.04653 1 4 encap 1020 ------- 0 1.2 4.0 -1 187
+ 1.04653 4 3 cbr 1000 ------- 2 1.1 1073741825.0 30 186
- 1.04653 4 3 cbr 1000 ------- 2 1.1 1073741825.0 30 186
r 1.04653 2 4 encap 1020 ------- 0 2.2 4.0 -1 193
r 1.047346 0 1 encap 1020 ------- 0 0.2 4.0 -1 183
+ 1.047346 1 4 encap 1020 ------- 0 0.2 4.0 -1 183
r 1.047346 1 4 encap 1020 ------- 0 1.2 4.0 -1 189
+ 1.047346 4 3 cbr 1000 ------- 2 1.1 1073741825.0 31 188
- 1.047346 4 3 cbr 1000 ------- 2 1.1 1073741825.0 31 188
r 1.047346 2 4 encap 1020 ------- 0 2.2 4.0 -1 195
- 1.047346 1 4 encap 1020 ------- 0 0.2 4.0 -1 183
r 1.048162 0 1 encap 1020 ------- 0 0.2 4.0 -1 185
+ 1.048162 1 4 encap 1020 ------- 0 0.2 4.0 -1 185
r 1.048162 1 4 encap 1020 ------- 0 1.2 4.0 -1 191
+ 1.048162 4 3 cbr 1000 ------- 2 1.1 1073741825.0 32 190
- 1.048162 4 3 cbr 1000 ------- 2 1.1 1073741825.0 32 190
r 1.048162 2 4 encap 1020 ------- 0 2.2 4.0 -1 197
- 1.048162 1 4 encap 1020 ------- 0 0.2 4.0 -1 185
r 1.05733 4 3 cbr 1000 ------- 2 1.1 1073741825.0 30 186
r 1.057346 1 4 encap 1020 ------- 0 0.2 4.0 -1 181
r 1.058146 4 3 cbr 1000 ------- 2 1.1 1073741825.0 31 188
r 1.058162 1 4 encap 1020 ------- 0 0.2 4.0 -1 183
r 1.058962 4 3 cbr 1000 ------- 2 1.1 1073741825.0 32 190
r 1.058978 1 4 encap 1020 ------- 0 0.2 4.0 -1 185
+ 1.089286 0 1 encap 1020 ------- 0 0.2 4.0 -1 199
- 1.089286 0 1 encap 1020 ------- 0 0.2 4.0 -1 199
+ 1.089286 0 1 encap 1020 ------- 0 0.2 4.0 -1 201
+ 1.089286 0 1 encap 1020 ------- 0 0.2 4.0 -1 203
+ 1.089286 1 4 encap 1020 ------- 0 1.2 4.0 -1 205
- 1.089286 1 4 encap 1020 ------- 0 1.2 4.0 -1 205
+ 1.089286 1 4 encap 1020 ------- 0 1.2 4.0 -1 207
+ 1.089286 1 4 encap 1020 ------- 0 1.2 4.0 -1 209
+ 1.089286 2 4 encap 1020 ------- 0 2.2 4.0 -1 211
- 1.089286 2 4 encap 1020 ------- 0 2.2 4.0 -1 211
+ 1.089286 2 4 encap 1020 ------- 0 2.2 4.0 -1 213
+ 1.089286 2 4 encap 1020 ------- 0 2.2 4.0 -1 215
- 1.090102 0 1 encap 1020 ------- 0 0.2 4.0 -1 201
- 1.090102 1 4 encap 1020 ------- 0 1.2 4.0 -1 207
- 1.090102 2 4 encap 1020 ------- 0 2.2 4.0 -1 213
- 1.090918 0 1 encap 1020 ------- 0 0.2 4.0 -1 203
- 1.090918 1 4 encap 1020 ------- 0 1.2 4.0 -1 209
- 1.090918 2 4 encap 1020 ------- 0 2.2 4.0 -1 215
r 1.100102 0 1 encap 1020 ------- 0 0.2 4.0 -1 199
+ 1.100102 1 4 encap 1020 ------- 0 0.2 4.0 -1 199
- 1.100102 1 4 encap 1020 ------- 0 0.2 4.0 -1 199
r 1.100102 1 4 encap 1020 ------- 0 1.2 4.0 -1 205
+ 1.100102 4 3 cbr 1000 ------- 2 1.1 1073741825.0 33 204
- 1.100102 4 3 cbr 1000 ------- 2 1.1 1073741825.0 33 204
r 1.100102 2 4 encap 1020 ------- 0 2.2 4.0 -1 211
r 1.100918 0 1 encap 1020 ------- 0 0.2 4.0 -1 201
+ 1.100918 1 4 encap 1020 ------- 0 0.2 4.0 -1 201
r 1.100918 1 4 encap 1020 ------- 0 1.2 4.0 -1 207
+ 1.100918 4 3 cbr 1000 ------- 2 1.1 1073741825.0 34 206
- 1.100918 4 3 cbr 1000 ------- 2 1.1 1073741825.0 34 206
r 1.100918 2 4 encap 1020 ------- 0 2.2 4.0 -1 213
- 1.100918 1 4 encap 1020 ------- 0 0.2 4.0 -1 201
r 1.101734 0 1 encap 1020 ------- 0 0.2 4.0 -1 203
+ 1.101734 1 4 encap 1020 ------- 0 0.2 4.0 -1 203
r 1.101734 1 4 encap 1020 ------- 0 1.2 4.0 -1 209
+ 1.101734 4 3 cbr 1000 ------- 2 1.1 1073741825.0 35 208
- 1.101734 4 3 cbr 1000 ------- 2 1.1 1073741825.0 35 208
r 1.101734 2 4 encap 1020 ------- 0 2.2 4.0 -1 215
- 1.101734 1 4 encap 1020 ------- 0 0.2 4.0 -1 203
r 1.110902 4 3 cbr 1000 ------- 2 1.1 1073741825.0 33 204
r 1.110918 1 4 encap 1020 ------- 0 0.2 4.0 -1 199
r 1.111718 4 3 cbr 1000 ------- 2 1.1 1073741825.0 34 206
r 1.111734 1 4 encap 1020 ------- 0 0.2 4.0 -1 201
r 1.112534 4 3 cbr 1000 ------- 2 1.1 1073741825.0 35 208
r 1.11255 1 4 encap 1020 ------- 0 0.2 4.0 -1 203
+ 1.142857 0 1 encap 1020 ------- 0 0.2 4.0 -1 217
- 1.142857 0 1 encap 1020 ------- 0 0.2 4.0 -1 217
+ 1.142857 0 1 encap 1020 ------- 0 0.2 4.0 -1 219
+ 1.142857 0 1 encap 1020 ------- 0 0.2 4.0 -1 221
+ 1.142857 1 4 encap 1020 ------- 0 1.2 4.0 -1 223
- 1.142857 1 4 encap 1020 ------- 0 1.2 4.0 -1 223
+ 1.142857 1 4 encap 1020 ------- 0 1.2 4.0 -1 225
+ 1.142857 1 4 encap 1020 ------- 0 1.2 4.0 -1 227
+ 1.142857 2 4 encap 1020 ------- 0 2.2 4.0 -1 229
- 1.142857 2 4 encap 1020 ------- 0 2.2 4.0 -1 229
+ 1.142857 2 4 encap 1020 ------- 0 2.2 4.0 -1 231
+ 1.142857 2 4 encap 1020 ------- 0 2.2 4.0 -1 233
- 1.143673 0 1 encap 1020 ------- 0 0.2 4.0 -1 219
- 1.143673 1 4 encap 1020 ------- 0 1.2 4.0 -1 225
- 1.143673 2 4 encap 1020 ------- 0 2.2 4.0 -1 231
- 1.144489 0 1 encap 1020 ------- 0 0.2 4.0 -1 221
- 1.144489 1 4 encap 1020 ------- 0 1.2 4.0 -1 227
- 1.144489 2 4 encap 1020 ------- 0 2.2 4.0 -1 233
r 1.153673 0 1 encap 1020 ------- 0 0.2 4.0 -1 217
+ 1.153673 1 4 encap 1020 ------- 0 0.2 4.0 -1 217
- 1.153673 1 4 encap 1020 ------- 0 0.2 4.0 -1 217
r 1.153673 1 4 encap 1020 ------- 0 1.2 4.0 -1 223
+ 1.153673 4 3 cbr 1000 ------- 2 1.1 1073741825.0 36 222
- 1.153673 4 3 cbr 1000 ------- 2 1.1 1073741825.0 36 222
r 1.153673 2 4 encap 1020 ------- 0 2.2 4.0 -1 229
r 1.154489 0 1 encap 1020 ------- 0 0.2 4.0 -1 219
+ 1.154489 1 4 encap 1020 ------- 0 0.2 4.0 -1 219
r 1.154489 1 4 encap 1020 ------- 0 1.2 4.0 -1 225
+ 1.154489 4 3 cbr 1000 ------- 2 1.1 1073741825.0 37 224
- 1.154489 4 3 cbr 1000 ------- 2 1.1 1073741825.0 37 224
r 1.154489 2 4 encap 1020 ------- 0 2.2 4.0 -1 231
- 1.154489 1 4 encap 1020 ------- 0 0.2 4.0 -1 219
r 1.155305 0 1 encap 1020 ------- 0 0.2 4.0 -1 221
+ 1.155305 1 4 encap 1020 ------- 0 0.2 4.0 -1 221
r 1.155305 1 4 encap 1020 ------- 0 1.2 4.0 -1 227
+ 1.155305 4 3 cbr 1000 ------- 2 1.1 1073741825.0 38 226
- 1.155305 4 3 cbr 1000 ------- 2 1.1 1073741825.0 38 226
r 1.155305 2 4 encap 1020 ------- 0 2.2 4.0 -1 233
- 1.155305 1 4 encap 1020 ------- 0 0.2 4.0 -1 221
r 1.164473 4 3 cbr 1000 ------- 2 1.1 1073741825.0 36 222
r 1.164489 1 4 encap 1020 ------- 0 0.2 4.0 -1 217
r 1.165289 4 3 cbr 1000 ------- 2 1.1 1073741825.0 37 224
r 1.165305 1 4 encap 1020 ------- 0 0.2 4.0 -1 219
r 1.166105 4 3 cbr 1000 ------- 2 1.1 1073741825.0 38 226
r 1.166121 1 4 encap 1020 ------- 0 0.2 4.0 -1 221
+ 1.196429 0 1 encap 1020 ------- 0 0.2 4.0 -1 235
- 1.196429 0 1 encap 1020 ------- 0 0.2 4.0 -1 235
+ 1.196429 0 1 encap 1020 ------- 0 0.2 4.0 -1 237
+ 1.196429 0 1 encap 1020 ------- 0 0.2 4.0 -1 239
+ 1.196429 1 4 encap 1020 ------- 0 1.2 4.0 -1 241
- 1.196429 1 4 encap 1020 ------- 0 1.2 4.0 -1 241
+ 1.196429 1 4 encap 1020 ------- 0 1.2 4.0 -1 243
+ 1.196429 1 4 encap 1020 ------- 0 1.2 4.0 -1 245
+ 1.196429 2 4 encap 1020 ------- 0 2.2 4.0 -1 247
- 1.196429 2 4 encap 1020 ------- 0 2.2 4.0 -1 247
+ 1.196429 2 4 encap 1020 ------- 0 2.2 4.0 -1 249
+ 1.196429 2 4 encap 1020 ------- 0 2.2 4.0 -1 251
- 1.197245 0 1 encap 1020 ------- 0 0.2 4.0 -1 237
- 1.197245 1 4 encap 1020 ------- 0 1.2 4.0 -1 243
- 1.197245 2 4 encap 1020 ------- 0 2.2 4.0 -1 249
- 1.198061 0 1 encap 1020 ------- 0 0.2 4.0 -1 239
- 1.198061 1 4 encap 1020 ------- 0 1.2 4.0 -1 245
- 1.198061 2 4 encap 1020 ------- 0 2.2 4.0 -1 251
r 1.207245 0 1 encap 1020 ------- 0 0.2 4.0 -1 235
+ 1.207245 1 4 encap 1020 ------- 0 0.2 4.0 -1 235
- 1.207245 1 4 encap 1020 ------- 0 0.2 4.0 -1 235
r 1.207245 1 4 encap 1020 ------- 0 1.2 4.0 -1 241
+ 1.207245 4 3 cbr 1000 ------- 2 1.1 1073741825.0 39 240
- 1.207245 4 3 cbr 1000 ------- 2 1.1 1073741825.0 39 240
r 1.207245 2 4 encap 1020 ------- 0 2.2 4.0 -1 247
r 1.208061 0 1 encap 1020 ------- 0 0.2 4.0 -1 237
+ 1.208061 1 4 encap 1020 ------- 0 0.2 4.0 -1 237
r 1.208061 1 4 encap 1020 ------- 0 1.2 4.0 -1 243
+ 1.208061 4 3 cbr 1000 ------- 2 1.1 1073741825.0 40 242
- 1.208061 4 3 cbr 1000 ------- 2 1.1 1073741825.0 40 242
r 1.208061 2 4 encap 1020 ------- 0 2.2 4.0 -1 249
- 1.208061 1 4 encap 1020 ------- 0 0.2 4.0 -1 237
r 1.208877 0 1 encap 1020 ------- 0 0.2 4.0 -1 239
+ 1.208877 1 4 encap 1020 ------- 0 0.2 4.0 -1 239
r 1.208877 1 4 encap 1020 ------- 0 1.2 4.0 -1 245
+ 1.208877 4 3 cbr 1000 ------- 2 1.1 1073741825.0 41 244
- 1.208877 4 3 cbr 1000 ------- 2 1.1 1073741825.0 41 244
r 1.208877 2 4 encap 1020 ------- 0 2.2 4.0 -1 251
- 1.208877 1 4 encap 1020 ------- 0 0.2 4.0 -1 239
r 1.218045 4 3 cbr 1000 ------- 2 1.1 1073741825.0 39 240
r 1.218061 1 4 encap 1020 ------- 0 0.2 4.0 -1 235
r 1.218861 4 3 cbr 1000 ------- 2 1.1 1073741825.0 40 242
r 1.218877 1 4 encap 1020 ------- 0 0.2 4.0 -1 237
r 1.219677 4 3 cbr 1000 ------- 2 1.1 1073741825.0 41 244
r 1.219693 1 4 encap 1020 ------- 0 0.2 4.0 -1 239
+ 1.25 0 1 encap 1020 ------- 0 0.2 4.0 -1 253
- 1.25 0 1 encap 1020 ------- 0 0.2 4.0 -1 253
+ 1.25 0 1 encap 1020 ------- 0 0.2 4.0 -1 255
+ 1.25 0 1 encap 1020 ------- 0 0.2 4.0 -1 257
+ 1.25 1 4 encap 1020 ------- 0 1.2 4.0 -1 259
- 1.25 1 4 encap 1020 ------- 0 1.2 4.0 -1 259
+ 1.25 1 4 encap 1020 ------- 0 1.2 4.0 -1 261
+ 1.25 1 4 encap 1020 ------- 0 1.2 4.0 -1 263
+ 1.25 2 4 encap 1020 ------- 0 2.2 4.0 -1 265
- 1.25 2 4 encap 1020 ------- 0 2.2 4.0 -1 265
+ 1.25 2 4 encap 1020 ------- 0 2.2 4.0 -1 267
+ 1.25 2 4 encap 1020 ------- 0 2.2 4.0 -1 269
- 1.250816 0 1 encap 1020 ------- 0 0.2 4.0 -1 255
- 1.250816 1 4 encap 1020 ------- 0 1.2 4.0 -1 261
- 1.250816 2 4 encap 1020 ------- 0 2.2 4.0 -1 267
- 1.251632 0 1 encap 1020 ------- 0 0.2 4.0 -1 257
- 1.251632 1 4 encap 1020 ------- 0 1.2 4.0 -1 263
- 1.251632 2 4 encap 1020 ------- 0 2.2 4.0 -1 269
r 1.260816 0 1 encap 1020 ------- 0 0.2 4.0 -1 253
+ 1.260816 1 4 encap 1020 ------- 0 0.2 4.0 -1 253
- 1.260816 1 4 encap 1020 ------- 0 0.2 4.0 -1 253
r 1.260816 1 4 encap 1020 ------- 0 1.2 4.0 -1 259
+ 1.260816 4 3 cbr 1000 ------- 2 1.1 1073741825.0 42 258
- 1.260816 4 3 cbr 1000 ------- 2 1.1 1073741825.0 42 258
r 1.260816 2 4 encap 1020 ------- 0 2.2 4.0 -1 265
r 1.261632 0 1 encap 1020 ------- 0 0.2 4.0 -1 255
+ 1.261632 1 4 encap 1020 ------- 0 0.2 4.0 -1 255
r 1.261632 1 4 encap 1020 ------- 0 1.2 4.0 -1 261
+ 1.261632 4 3 cbr 1000 ------- 2 1.1 1073741825.0 43 260
- 1.261632 4 3 cbr 1000 ------- 2 1.1 1073741825.0 43 260
r 1.261632 2 4 encap 1020 ------- 0 2.2 4.0 -1 267
- 1.261632 1 4 encap 1020 ------- 0 0.2 4.0 -1 255
r 1.262448 0 1 encap 1020 ------- 0 0.2 4.0 -1 257
+ 1.262448 1 4 encap 1020 ------- 0 0.2 4.0 -1 257
r 1.262448 1 4 encap 1020 ------- 0 1.2 4.0 -1 263
+ 1.262448 4 3 cbr 1000 ------- 2 1.1 1073741825.0 44 262
- 1.262448 4 3 cbr 1000 ------- 2 1.1 1073741825.0 44 262
r 1.262448 2 4 encap 1020 ------- 0 2.2 4.0 -1 269
- 1.262448 1 4 encap 1020 ------- 0 0.2 4.0 -1 257
r 1.271616 4 3 cbr 1000 ------- 2 1.1 1073741825.0 42 258
r 1.271632 1 4 encap 1020 ------- 0 0.2 4.0 -1 253
r 1.272432 4 3 cbr 1000 ------- 2 1.1 1073741825.0 43 260
r 1.272448 1 4 encap 1020 ------- 0 0.2 4.0 -1 255
r 1.273248 4 3 cbr 1000 ------- 2 1.1 1073741825.0 44 262
r 1.273264 1 4 encap 1020 ------- 0 0.2 4.0 -1 257
+ 1.303571 0 1 encap 1020 ------- 0 0.2 4.0 -1 271
- 1.303571 0 1 encap 1020 ------- 0 0.2 4.0 -1 271
+ 1.303571 0 1 encap 1020 ------- 0 0.2 4.0 -1 273